<?xml version="1.0" encoding="UTF-8"?>
<VTKFile type="PolyData" version="1.0" byte_order="LittleEndian">

  <PolyData>

    <Piece NumberOfPoints="420" NumberOfVerts="0" NumberOfLines="0" NumberOfStrips="0" NumberOfPolys="0">

      <Points>

        <DataArray type="Float64" NumberOfComponents="3" Name="Points" format="ascii">
           0.000000000000000E+000  0.000000000000000E+000  0.000000000000000E+000 0.100000000000000E+001  0.000000000000000E+000  0.000000000000000E+000 0.100000000000000E+001  0.100000000000000E+001  0.142108547152020E-013 0.526315789473684E-001  0.000000000000000E+000  0.000000000000000E+000 0.105263157894737E+000  0.000000000000000E+000  0.000000000000000E+000 0.157894736842105E+000  0.000000000000000E+000  0.000000000000000E+000 0.210526315789474E+000  0.000000000000000E+000  0.000000000000000E+000 0.263157894736842E+000  0.000000000000000E+000  0.000000000000000E+000 0.315789473684211E+000  0.000000000000000E+000  0.000000000000000E+000 0.368421052631579E+000  0.000000000000000E+000  0.000000000000000E+000 0.421052631578947E+000  0.000000000000000E+000  0.000000000000000E+000 0.473684210526316E+000  0.000000000000000E+000  0.000000000000000E+000 0.526315789473684E+000  0.000000000000000E+000  0.000000000000000E+000 0.578947368421053E+000  0.000000000000000E+000  0.000000000000000E+000 0.631578947368421E+000  0.000000000000000E+000  0.000000000000000E+000 0.684210526315789E+000  0.000000000000000E+000  0.000000000000000E+000 0.736842105263158E+000  0.000000000000000E+000  0.000000000000000E+000 0.789473684210526E+000  0.000000000000000E+000  0.000000000000000E+000 0.842105263157895E+000  0.000000000000000E+000  0.000000000000000E+000 0.894736842105263E+000  0.000000000000000E+000  0.000000000000000E+000 0.947368421052632E+000  0.000000000000000E+000  0.000000000000000E+000 0.100000000000000E+001  0.526315789473684E-001 -0.256670397893768E-014 0.100000000000000E+001  0.105263157894737E+000 -0.472133739433688E-014 0.100000000000000E+001  0.157894736842105E+000 -0.669687347427353E-014 0.100000000000000E+001  0.210526315789474E+000 -0.848392762203065E-014 0.100000000000000E+001  0.263157894736842E+000 -0.960132216636420E-014 0.100000000000000E+001  0.315789473684211E+000 -0.106160835972191E-013 0.100000000000000E+001  0.368421052631579E+000 -0.106515122924887E-013 0.100000000000000E+001  0.421052631578947E+000 -0.113978631944729E-013 0.100000000000000E+001  0.473684210526316E+000 -0.114270787379436E-013 0.100000000000000E+001  0.526315789473684E+000 -0.119566967196572E-013 0.100000000000000E+001  0.578947368421053E+000 -0.920781514551772E-014 0.100000000000000E+001  0.631578947368421E+000 -0.909704358978335E-014 0.100000000000000E+001  0.684210526315789E+000 -0.599423599057158E-014 0.100000000000000E+001  0.736842105263158E+000 -0.344665377619560E-014 0.100000000000000E+001  0.789473684210526E+000 -0.500112219492957E-014 0.100000000000000E+001  0.842105263157895E+000  0.237530018606032E-014 0.100000000000000E+001  0.894736842105263E+000  0.270216260277610E-014 0.100000000000000E+001  0.947368421052632E+000  0.901327884812958E-014 0.947368421052632E+000  0.947368421052632E+000  0.663714980701515E+000 0.894736842105263E+000  0.894736842105263E+000  0.102270547340798E+001 0.842105263157895E+000  0.842105263157895E+000  0.114916245271293E+001 0.789473684210526E+000  0.789473684210526E+000  0.110741937216566E+001 0.736842105263158E+000  0.736842105263158E+000  0.953952164271303E+000 0.684210526315789E+000  0.684210526315789E+000  0.737379240490794E+000 0.631578947368421E+000  0.631578947368421E+000  0.498461491240864E+000 0.578947368421053E+000  0.578947368421053E+000  0.270102285894066E+000 0.526315789473684E+000  0.526315789473684E+000  0.773474727787579E-001 0.473684210526316E+000  0.473684210526316E+000 -0.626146208208936E-001 0.421052631578947E+000  0.421052631578947E+000 -0.140453188664910E+000 0.368421052631579E+000  0.368421052631579E+000 -0.154694945557507E+000 0.315789473684211E+000  0.315789473684211E+000 -0.111724127347088E+000 0.263157894736842E+000  0.263157894736842E+000 -0.257824909262507E-001 0.210526315789474E+000  0.210526315789474E+000  0.810306857682191E-001 0.157894736842105E+000  0.157894736842105E+000  0.178758603755343E+000 0.105263157894737E+000  0.105263157894737E+000  0.229586943009952E+000 0.526315789473685E-001  0.526315789473685E-001  0.187843862462688E+000 0.105263157894737E+000  0.526315789473684E-001  0.177408092325872E+000 0.947368421052632E+000  0.526315789473684E-001  0.104357701368138E-001 0.947368421052632E+000  0.894736842105263E+000  0.511352736703993E+000 0.157894736842105E+000  0.526315789473684E-001  0.166972322189056E+000 0.210526315789474E+000  0.526315789473684E-001  0.156536552052240E+000 0.263157894736842E+000  0.526315789473684E-001  0.146100781915424E+000 0.315789473684211E+000  0.526315789473684E-001  0.135665011778608E+000 0.368421052631579E+000  0.526315789473684E-001  0.125229241641792E+000 0.421052631578947E+000  0.526315789473684E-001  0.114793471504976E+000 0.473684210526316E+000  0.526315789473684E-001  0.104357701368160E+000 0.526315789473684E+000  0.526315789473684E-001  0.939219312313440E-001 0.578947368421053E+000  0.526315789473684E-001  0.834861610945278E-001 0.631578947368421E+000  0.526315789473684E-001  0.730503909577116E-001 0.684210526315789E+000  0.526315789473684E-001  0.626146208208954E-001 0.736842105263158E+000  0.526315789473684E-001  0.521788506840792E-001 0.789473684210526E+000  0.526315789473684E-001  0.417430805472628E-001 0.842105263157895E+000  0.526315789473684E-001  0.313073104104465E-001 0.894736842105263E+000  0.526315789473684E-001  0.208715402736302E-001 0.947368421052632E+000  0.105263157894737E+000  0.135051142946991E-001 0.947368421052631E+000  0.157894736842105E+000  0.111724127347033E-001 0.947368421052632E+000  0.210526315789474E+000  0.540204571787419E-002 0.947368421052631E+000  0.263157894736842E+000 -0.184160649474077E-002 0.947368421052632E+000  0.315789473684211E+000 -0.859416364209249E-002 0.947368421052632E+000  0.368421052631579E+000 -0.128912454631350E-001 0.947368421052632E+000  0.421052631578947E+000 -0.127684716968193E-001 0.947368421052632E+000  0.473684210526316E+000 -0.626146208209854E-002 0.947368421052632E+000  0.526315789473684E+000  0.859416364207414E-002 0.947368421052632E+000  0.578947368421053E+000  0.337627857367512E-001 0.947368421052632E+000  0.631578947368421E+000  0.712087844629756E-001 0.947368421052632E+000  0.684210526315789E+000  0.122896540081793E+000 0.947368421052632E+000  0.736842105263158E+000  0.190790432854257E+000 0.947368421052632E+000  0.789473684210526E+000  0.276854843041408E+000 0.947368421052632E+000  0.842105263157895E+000  0.383054150904303E+000 0.894736842105263E+000  0.842105263157895E+000  0.766108301808620E+000 0.842105263157895E+000  0.789473684210526E+000  0.830564529124241E+000 0.789473684210526E+000  0.736842105263158E+000  0.763161731417040E+000 0.736842105263158E+000  0.684210526315789E+000  0.614482700408991E+000 0.684210526315789E+000  0.631578947368421E+000  0.427252706777884E+000 0.631578947368421E+000  0.578947368421053E+000  0.236339500157307E+000 0.578947368421053E+000  0.526315789473684E+000  0.687533091366740E-001 0.526315789473684E+000  0.473684210526316E+000 -0.563531587388047E-001 0.473684210526316E+000  0.421052631578947E+000 -0.127684716968100E+000 0.421052631578947E+000  0.368421052631579E+000 -0.141803700094382E+000 0.368421052631579E+000  0.315789473684211E+000 -0.103129963705004E+000 0.315789473684211E+000  0.263157894736842E+000 -0.239408844315183E-001 0.263157894736842E+000  0.210526315789474E+000  0.756286400503376E-001 0.210526315789474E+000  0.157894736842105E+000  0.167586191020634E+000 0.157894736842105E+000  0.105263157894737E+000  0.216081828715250E+000 0.210526315789474E+000  0.105263157894737E+000  0.202576714420547E+000 0.894736842105263E+000  0.105263157894737E+000  0.270102285894028E-001 0.894736842105263E+000  0.789473684210526E+000  0.553709686082828E+000 0.263157894736842E+000  0.105263157894737E+000  0.189071600125844E+000 0.315789473684211E+000  0.105263157894737E+000  0.175566485831140E+000 0.368421052631579E+000  0.105263157894737E+000  0.162061371536437E+000 0.421052631578947E+000  0.105263157894737E+000  0.148556257241734E+000 0.473684210526316E+000  0.105263157894737E+000  0.135051142947031E+000 0.526315789473684E+000  0.105263157894737E+000  0.121546028652327E+000 0.578947368421053E+000  0.105263157894737E+000  0.108040914357624E+000 0.631578947368421E+000  0.105263157894737E+000  0.945358000629207E-001 0.684210526315789E+000  0.105263157894737E+000  0.810306857682172E-001 0.736842105263158E+000  0.105263157894737E+000  0.675255714735137E-001 0.789473684210526E+000  0.105263157894737E+000  0.540204571788102E-001 0.842105263157895E+000  0.105263157894737E+000  0.405153428841065E-001 0.894736842105263E+000  0.157894736842105E+000  0.223448254694131E-001 0.894736842105263E+000  0.210526315789474E+000  0.108040914357567E-001 0.894736842105263E+000  0.263157894736842E+000 -0.368321298947106E-002 0.894736842105263E+000  0.315789473684211E+000 -0.171883272841749E-001 0.894736842105263E+000  0.368421052631579E+000 -0.257824909262588E-001 0.894736842105263E+000  0.421052631578947E+000 -0.255369433936284E-001 0.894736842105263E+000  0.473684210526316E+000 -0.125229241641856E-001 0.894736842105263E+000  0.526315789473684E+000  0.171883272841614E-001 0.894736842105263E+000  0.578947368421053E+000  0.675255714735107E-001 0.894736842105263E+000  0.631578947368421E+000  0.142417568925956E+000 0.894736842105263E+000  0.684210526315789E+000  0.245793080163591E+000 0.894736842105263E+000  0.736842105263158E+000  0.381580865708519E+000 0.842105263157895E+000  0.736842105263158E+000  0.572371298562780E+000 0.789473684210526E+000  0.684210526315789E+000  0.491586160327194E+000 0.736842105263158E+000  0.631578947368421E+000  0.356043922314900E+000 0.684210526315789E+000  0.578947368421053E+000  0.202576714420547E+000 0.6
[...]
        <PointData>

          <DataArray type="Float64" NumberOfComponents="3" Name="N13" format="ascii">
             0.000000000000000E+000  0.000000000000000E+000  0.000000000000000E+000 0.000000000000000E+000  0.000000000000000E+000  0.000000000000000E+000 0.000000000000000E+000  0.000000000000000E+000  0.142108547152020E-013 0.000000000000000E+000  0.000000000000000E+000  0.000000000000000E+000 0.000000000000000E+000  0.000000000000000E+000  0.000000000000000E+000 0.000000000000000E+000  0.000000000000000E+000  0.000000000000000E+000 0.000000000000000E+000  0.000000000000000E+000  0.000000000000000E+000 0.000000000000000E+000  0.000000000000000E+000  0.000000000000000E+000 0.000000000000000E+000  0.000000000000000E+000  0.000000000000000E+000 0.000000000000000E+000  0.000000000000000E+000  0.000000000000000E+000 0.000000000000000E+000  0.000000000000000E+000  0.000000000000000E+000 0.000000000000000E+000  0.000000000000000E+000  0.000000000000000E+000 0.000000000000000E+000  0.000000000000000E+000  0.000000000000000E+000 0.000000000000000E+000  0.000000000000000E+000  0.000000000000000E+000 0.000000000000000E+000  0.000000000000000E+000  0.000000000000000E+000 0.000000000000000E+000  0.000000000000000E+000  0.000000000000000E+000 0.000000000000000E+000  0.000000000000000E+000  0.000000000000000E+000 0.000000000000000E+000  0.000000000000000E+000  0.000000000000000E+000 0.000000000000000E+000  0.000000000000000E+000  0.000000000000000E+000 0.000000000000000E+000  0.000000000000000E+000  0.000000000000000E+000 0.000000000000000E+000  0.000000000000000E+000  0.000000000000000E+000 0.000000000000000E+000  0.000000000000000E+000 -0.256670397893768E-014 0.000000000000000E+000  0.000000000000000E+000 -0.472133739433688E-014 0.000000000000000E+000  0.000000000000000E+000 -0.669687347427353E-014 0.000000000000000E+000  0.000000000000000E+000 -0.848392762203065E-014 0.000000000000000E+000  0.000000000000000E+000 -0.960132216636420E-014 0.000000000000000E+000  0.000000000000000E+000 -0.106160835972191E-013 0.000000000000000E+000  0.000000000000000E+000 -0.106515122924887E-013 0.000000000000000E+000  0.000000000000000E+000 -0.113978631944729E-013 0.000000000000000E+000  0.000000000000000E+000 -0.114270787379436E-013 0.000000000000000E+000  0.000000000000000E+000 -0.119566967196572E-013 0.000000000000000E+000  0.000000000000000E+000 -0.920781514551772E-014 0.000000000000000E+000  0.000000000000000E+000 -0.909704358978335E-014 0.000000000000000E+000  0.000000000000000E+000 -0.599423599057158E-014 0.000000000000000E+000  0.000000000000000E+000 -0.344665377619560E-014 0.000000000000000E+000  0.000000000000000E+000 -0.500112219492957E-014 0.000000000000000E+000  0.000000000000000E+000  0.237530018606032E-014 0.000000000000000E+000  0.000000000000000E+000  0.270216260277610E-014 0.000000000000000E+000  0.000000000000000E+000  0.901327884812958E-014 0.000000000000000E+000  0.000000000000000E+000  0.663714980701515E+000 0.000000000000000E+000  0.000000000000000E+000  0.102270547340798E+001 0.000000000000000E+000  0.000000000000000E+000  0.114916245271293E+001 0.000000000000000E+000  0.000000000000000E+000  0.110741937216566E+001 0.000000000000000E+000  0.000000000000000E+000  0.953952164271303E+000 0.000000000000000E+000  0.000000000000000E+000  0.737379240490794E+000 0.000000000000000E+000  0.000000000000000E+000  0.498461491240864E+000 0.000000000000000E+000  0.000000000000000E+000  0.270102285894066E+000 0.000000000000000E+000  0.000000000000000E+000  0.773474727787579E-001 0.000000000000000E+000  0.000000000000000E+000 -0.626146208208936E-001 0.000000000000000E+000  0.000000000000000E+000 -0.140453188664910E+000 0.000000000000000E+000  0.000000000000000E+000 -0.154694945557507E+000 0.000000000000000E+000  0.000000000000000E+000 -0.111724127347088E+000 0.000000000000000E+000  0.000000000000000E+000 -0.257824909262507E-001 0.000000000000000E+000  0.000000000000000E+000  0.810306857682191E-001 0.000000000000000E+000  0.000000000000000E+000  0.178758603755343E+000 0.000000000000000E+000  0.000000000000000E+000  0.229586943009952E+000 0.000000000000000E+000  0.000000000000000E+000  0.187843862462688E+000 0.000000000000000E+000  0.000000000000000E+000  0.177408092325872E+000 0.000000000000000E+000  0.000000000000000E+000  0.104357701368138E-001 0.000000000000000E+000  0.000000000000000E+000  0.511352736703993E+000 0.000000000000000E+000  0.000000000000000E+000  0.166972322189056E+000 0.000000000000000E+000  0.000000000000000E+000  0.156536552052240E+000 0.000000000000000E+000  0.000000000000000E+000  0.146100781915424E+000 0.000000000000000E+000  0.000000000000000E+000  0.135665011778608E+000 0.000000000000000E+000  0.000000000000000E+000  0.125229241641792E+000 0.000000000000000E+000  0.000000000000000E+000  0.114793471504976E+000 0.000000000000000E+000  0.000000000000000E+000  0.104357701368160E+000 0.000000000000000E+000  0.000000000000000E+000  0.939219312313440E-001 0.000000000000000E+000  0.000000000000000E+000  0.834861610945278E-001 0.000000000000000E+000  0.000000000000000E+000  0.730503909577116E-001 0.000000000000000E+000  0.000000000000000E+000  0.626146208208954E-001 0.000000000000000E+000  0.000000000000000E+000  0.521788506840792E-001 0.000000000000000E+000  0.000000000000000E+000  0.417430805472628E-001 0.000000000000000E+000  0.000000000000000E+000  0.313073104104465E-001 0.000000000000000E+000  0.000000000000000E+000  0.208715402736302E-001 0.000000000000000E+000  0.000000000000000E+000  0.135051142946991E-001 0.000000000000000E+000  0.000000000000000E+000  0.111724127347033E-001 0.000000000000000E+000  0.000000000000000E+000  0.540204571787419E-002 0.000000000000000E+000  0.000000000000000E+000 -0.184160649474077E-002 0.000000000000000E+000  0.000000000000000E+000 -0.859416364209249E-002 0.000000000000000E+000  0.000000000000000E+000 -0.128912454631350E-001 0.000000000000000E+000  0.000000000000000E+000 -0.127684716968193E-001 0.000000000000000E+000  0.000000000000000E+000 -0.626146208209854E-002 0.000000000000000E+000  0.000000000000000E+000  0.859416364207414E-002 0.000000000000000E+000  0.000000000000000E+000  0.337627857367512E-001 0.000000000000000E+000  0.000000000000000E+000  0.712087844629756E-001 0.000000000000000E+000  0.000000000000000E+000  0.122896540081793E+000 0.000000000000000E+000  0.000000000000000E+000  0.190790432854257E+000 0.000000000000000E+000  0.000000000000000E+000  0.276854843041408E+000 0.000000000000000E+000  0.000000000000000E+000  0.383054150904303E+000 0.000000000000000E+000  0.000000000000000E+000  0.766108301808620E+000 0.000000000000000E+000  0.000000000000000E+000  0.830564529124241E+000 0.000000000000000E+000  0.000000000000000E+000  0.763161731417040E+000 0.000000000000000E+000  0.000000000000000E+000  0.614482700408991E+000 0.000000000000000E+000  0.000000000000000E+000  0.427252706777884E+000 0.000000000000000E+000  0.000000000000000E+000  0.236339500157307E+000 0.000000000000000E+000  0.000000000000000E+000  0.687533091366740E-001 0.000000000000000E+000  0.000000000000000E+000 -0.563531587388047E-001 0.000000000000000E+000  0.000000000000000E+000 -0.127684716968100E+000 0.000000000000000E+000  0.000000000000000E+000 -0.141803700094382E+000 0.000000000000000E+000  0.000000000000000E+000 -0.103129963705004E+000 0.000000000000000E+000  0.000000000000000E+000 -0.239408844315183E-001 0.000000000000000E+000  0.000000000000000E+000  0.756286400503376E-001 0.000000000000000E+000  0.000000000000000E+000  0.167586191020634E+000 0.000000000000000E+000  0.000000000000000E+000  0.216081828715250E+000 0.000000000000000E+000  0.000000000000000E+000  0.202576714420547E+000 0.000000000000000E+000  0.000000000000000E+000  0.270102285894028E-001 0.000000000000000E+000  0.000000000000000E+000  0.553709686082828E+000 0.000000000000000E+000  0.000000000000000E+000  0.189071600125844E+000 0.000000000000000E+000  0.000000000000000E+000  0.175566485831140E+000 0.000000000000000E+000  0.000000000000000E+000  0.162061371536437E+000 0.000000000000000E+000  0.000000000000000E+000  0.148556257241734E+000 0.000000000000000E+000  0.000000000000000E+000  0.135051142947031E+000 0.000000000000000E+000  0.000000000000000E+000  0.121546028652327E+000 0.000000000000000E+000  0.000000000000000E+000  0.108040914357624E+000 0.000000000000000E+000  0.000000000000000E+000  0.945358000629207E-001 0.000000000000000E+000  0.000000000000000E+000  0.810306857682172E-001 0.000000000000000E+000  0.000000000000000E+000  0.675255714735137E-001 0.000000000000000E+000  0.000000000000000E+000  0.540204571788102E-001 0.000000000000000E+000  0.000000000000000E+000  0.405153428841065E-001 0.000000000000000E+000  0.000000000000000E+000  0.223448254694131E-001 0.000000000000000E+000  0.000000000000000E+000  0.108040914357567E-001 0.000000000000000E+000  0.000000000000000E+000 -0.368321298947106E-002 0.000000000000000E+000  0.000000000000000E+000 -0.171883272841749E-001 0.000000000000000E+000  0.000000000000000E+000 -0.257824909262588E-001 0.000000000000000E+000  0.000000000000000E+000 -0.255369433936284E-001 0.000000000000000E+000  0.000000000000000E+000 -0.125229241641856E-001 0.000000000000000E+000  0.000000000000000E+000  0.171883272841614E-001 0.000000000000000E+000  0.000000000000000E+000  0.675255714735107E-001 0.000000000000000E+000  0.000000000000000E+000  0.142417568925956E+000 0.000000000000000E+000  0.000000000000000E+000  0.245793080163591E+000 0.000000000000000E+000  0.000000000000000E+000  0.381580865708519E+000 0.000000000000000E+000  0.000000000000000E+000  0.572371298562780E+000 0.000000000000000E+000  0.000000000000000E+000  0.491586160327194E+000 0.000000000000000E+000  0.000000000000000E+000  0.356043922314900E+000 0.000000000000000E+000  0.000000000000000E+000  0.202576714420547E+000 0.000000000000000E+000  0.000000000000000E+000  0.601591454945867E-001 0.000000000000000E+000  0.000000000000000E+000 -0.500916966567159E-001 0.000000000000000E+000  0.000000000000000E+000 -0.114916245271291E+000 0.000000000000000E+000  0.000000000000000E+000 -0.128912454631256E+000 0.000000000000000E+000  0.000000000000000E+000 -0.945358000629208E-001 0.000000000000000E+000  0.000000000000000E+000 -0.220992779367864E-001 0.000000000000000E+000  0.000000000000000E+000  0.702265943324567E-001 0.000000000000000E+000  0.000000000000000E+000  0.156413778285925E+000 0.000000000000000E+000  0.000000000000000E+000  0.145241365551216E+000 0.000000000000000E+000  0.000000000000000E+000  0.335172382041229E-001 0.000000000000000E+000  0.000000000000000E+000  0.368689620245394E+000 0.000000000000000E+000  0.000000000000000E+000  0.134068952816507E+000 0.000000000000000E+000  0.000000000000000E+000  0.122896540081798E+000 0.000000000000000E+000  0.000000000000000E+000  0.111724127347089E+000 0.000000000000000E+000  0.000000000000000E+000  0.100551714612380E+000 0.000000000000000E+000  0.000000000000000E+000  0.893793018776705E-001 0.000000000000000E+000  0.000000000000000E+000  0.782068891429612E-001 0.000000000000000E+000  0.000000000000000E+000  0.670344764082517E-001 0.000000000000000E+000  0.000000000000000E+000  0.558620636735422E-001 0.000000000000000E+000  0.000000000000000E+000  0.446896509388325E-001 0.000000000000000E+000  0.000000000000000E+000  0.162061371536391E-001 0.000000000000000E+000  0.000000000000000E+000 -0.552481948420237E-002 0.000000000000000E+000  0.000000000000000E+000 -0.257824909262568E-001 0.000000000000000E+000  0.000000000000000E+000 -0.386737363893833E-001 0.000000000000000E+000  0.000000000000000E+000 -0.383054150904367E-001 0.000000000000000E+000  0.000000000000000E+000 -0.187843862462742E-001 0.000000000000000E+000  0.000000000000000E+000  0.257824909262462E-001 0.000000000000000E+000  0.000000000000000E+000  0.101288357210267E+000 0.000000000000000E+000  0.000000000000000E+000  0.213626353388936E+000 0.000000000000000E+000  0.000000000000000E+000  0.284835137851920E+000 0.000000000000000E+000  0.000000000000000E+000  0.168813928683788E+000 0.000000000000000E+000  0.000000000000000E+000  0.515649818525011E-001 0.000000000000000E+000  0.000000000000000E+000 -0.438302345746279E-001 0.000000000000000E+000  0.000000000000000E+000 -0.102147773574481E+000 0.000000000000000E+000  0.000000000000000E+000 -0.116021209168131E+000 0.000000000000000E+000  0.000000000000000E+000 -0.859416364208373E-001 0.000000000000000E+000  0.000000000000000E+000 -0.202576714420542E-001 0.000000000000000E+000  0.000000000000000E+000  0.648245486145753E-001 0.000000000000000E+000  0.000000000000000E+000  0.594225028966941E-001 0.000000000000000E+000  0.000000000000000E+000  0.216081828715214E-001 0.000000000000000E+000  0.000000000000000E+000  0.135051142947030E+000 0.000000000000000E+000  0.000000000000000E+000  0.540204571788126E-001 0.000000000000000E+000  0.000000000000000E+000  0.486184114609310E-001 0.000000000000000E+000  0.000000000000000E+000  0.432163657430491E-001 0.000000000000000E+000  0.000000000000000E+000  0.378143200251673E-001 0.000000000000000E+000  0.000000000000000E+000  0.324122743072855E-001 0.000000000000000E+000  0.000000000000000E+000  0.270102285894034E-001 0.000000000000000E+000  0.000000000000000E+000 -0.736642597893314E-002 0.000000000000000E+000  0.000000000000000E+000 -0.343766545683393E-001 0.000000000000000E+000  0.000000000000000E+000 -0.515649818525076E-001 0.000000000000000E+000  0.000000000000000E+000 -0.510738867872443E-001 0.000000000000000E+000  0.000000000000000E+000 -0.250458483283625E-001 0.000000000000000E+000  0.000000000000000E+000  0.343766545683349E-001 0.000000000000000E+000  0.000000000000000E+000  0.429708182104167E-001 0.000000000000000E+000  0.000000000000000E+000 -0.375687724925390E-001 0.000000000000000E+000  0.000000000000000E+000 -0.893793018776710E-001 0.000000000000000E+000  0.000000000000000E+000 -0.103129963705006E+000 0.000000000000000E+000  0.000000000000000E+000 -0.773474727787538E-001 0.000000000000000E+000  0.000000000000000E+000 -0.184160649473221E-001 0.000000000000000E+000  0.000000000000000E+000 -0.165744584525904E-001 0.000000000000000E+000  0.000000000000000E+000 -0.920803247366436E-002 0.000000000000000E+000  0.000000000000000E+000 -0.313073104104510E-001 0.000000000000000E+000  0.000000000000000E+000 -0.147328519578589E-001 0.000000000000000E+000  0.000000000000000E+000 -0.128912454631273E-001 0.000000000000000E+000  0.000000000000000E+000 -0.110496389683959E-001 0.000000000000000E+000  0.000000000000000E+000 -0.429708182104221E-001 0.000000000000000E+000  0.000000000000000E+000 -0.644562273156311E-001 0.000000000000000E+000  0.000000000000000E+000 -0.638423584840534E-001 0.000000000000000E+000  0.000000000000000E+000 -0.766108301808622E-001 0.000000000000000E+000  0.000000000000000E+000 -0.902387182418805E-001 0.000000000000000E+000  0.000000000000000E+000 -0.687533091366707E-001 0.000000000000000E+000  0.000000000000000E+000 -0.601591454945875E-001 0.000000000000000E+000  0.000000000000000E+000 -0.515649818525047E-001 0.000000000000000E+000  0.000000000000000E+000 -0.773474727787555E-001 0.000000000000000E+000  0.000000000000000E+000  0.000000000000000E+000 0.000000000000000E+000  0.000000000000000E+000 -0.710542735760100E-014 0.000000000000000E+000  0.000000000000000E+000  0.000000000000000E+000 0.000000000000000E+000  0.000000000000000E+000  0.187843862462688E+000 0.000000000000000E+000  0.000000000000000E+000  0.229586943009952E+000 0.000000000000000E+000  0.000000000000000E+000  0.178758603755343E+000 0.000000000000000E+000  0.000000000000000E+000  0.810306857682187E-001 0.000000000000000E+000  0.000000000000000E+000 -0.257824909262512E-001 0.000000000000000E+000  0.000000000000000E+000 -0.111724127347089E+000 0.000000000000000E+000  0.000000000000000E+000 -0.154694945557508E+000 0.000000000000000E+000  0.000000000000000E+000 -0.140453188664911E+000 0.000000000000000E+000  0.000000000000000E+000 -0.626146208208954E-001 0.000000000000000E+000  0.000000000000000E+000  0.773474727787531E-001 0.000000000000000E+000  0.000000000000000E+000  0.270102285894063E+000 0.000000000000000E+000  0.000000000000000E+000  0.498461491240861E+000 0.000000000000000E+000  0.000000000000000E+000  0.737379240490786E+000 0.000000000000000E+000  0.000000000000000E+000  0.953952164271302E+000 0.000000000000000E+000  0.000000000000000E+000  0.110741937216565E+001 0.000000000000000E+000  0.000000000000000E+000  0.114916245271292E+001 0.000000000000000E+000  0.000000000000000E+000  0.102270547340797E+001 0.000000000000000E+000  0.000000000000000E+000  0.663714980701494E+000 0.000000000000000E+000  0.000000000000000E+000  0.223050715522772E-014 0.000000000000000E+000  0.000000000000000E+000 -0.653218228490458E-015 0.000000000000000E+000  0.000000000000000E+000  0.737589533010945E-015 0.000000000000000E+000  0.000000000000000E+000 -0.315523780296061E-014 0.000000000000000E+000  0.000000000000000E+000 -0.316323443700870E-014 0.000000000000000E+000  0.000000000000000E+000 -0.195944113899395E-014 0.000000000000000E+000  0.000000000000000E+000  0.148471709671817E-014 0.000000000000000E+000  0.000000000000000E+000  0.353111595155754E-015 0.000000000000000E+000  0.000000000000000E+000  0.857102863693347E-015 0.000000000000000E+000  0.000000000000000E+000  0.310800995488509E-016 0.000000000000000E+000  0.000000000000000E+000  0.239375378218891E-015 0.000000000000000E+000  0.000000000000000E+000 -0.158001675580925E-017 0.000000000000000E+000  0.000000000000000E+000 -0.324110734047959E-015 0.000000000000000E+000  0.000000000000000E+000  0.104052792894251E-016 0.000000000000000E+000  0.000000000000000E+000 -0.108909271427293E-015 0.000000000000000E+000  0.000000000000000E+000 -0.126724783866043E-015 0.000000000000000E+000  0.000000000000000E+000 -0.106713817699157E-015 0.000000000000000E+000  0.000000000000000E+000 -0.411311511646058E-016 0.000000000000000E+000  0.000000000000000E+000  0.000000000000000E+000 0.000000000000000E+000  0.000000000000000E+000  0.000000000000000E+000 0.000000000000000E+000  0.000000000000000E+000  0.000000000000000E+000 0.000000000000000E+000  0.000000000000000E+000  0.000000000000000E+000 0.000000000000000E+000  0.000000000000000E+000  0.000000000000000E+000 0.000000000000000E+000  0.000000000000000E+000  0.000000000000000E+000 0.000000000000000E+000  0.000000000000000E+000  0.000000000000000E+000 0.000000000000000E+000  0.000000000000000E+000  0.000000000000000E+000 0.000000000000000E+000  0.000000000000000E+000  0.000000000000000E+000 0.000000000000000E+000  0.000000000000000E+000  0.000000000000000E+000 0.000000000000000E+000  0.000000000000000E+000  0.000000000000000E+000 0.000000000000000E+000  0.000000000000000E+000  0.000000000000000E+000 0.000000000000000E+000  0.000000000000000E+000  0.000000000000000E+000 0.000000000000000E+000  0.000000000000000E+000  0.000000000000000E+000 0.000000000000000E+000  0.000000000000000E+000  0.000000000000000E+000 0.000000000000000E+000  0.000000000000000E+000  0.000000000000000E+000 0.000000000000000E+000  0.000000000000000E+000  0.000000000000000E+000 0.000000000000000E+000  0.000000000000000E+000  0.000000000000000E+000 0.000000000000000E+000  0.000000000000000E+000  0.177408092325872E+000 0.000000000000000E+000  0.000000000000000E+000  0.511352736703982E+000 0.000000000000000E+000  0.000000000000000E+000  0.104357701368160E-001 0.000000000000000E+000  0.000000000000000E+000  0.216081828715249E+000 0.000000000000000E+000  0.000000000000000E+000  0.167586191020634E+000 0.000000000000000E+000  0.000000000000000E+000  0.756286400503375E-001 0.000000000000000E+000  0.000000000000000E+000 -0.239408844315190E-001 0.000000000000000E+000  0.000000000000000E+000 -0.103129963705005E+000 0.000000000000000E+000  0.000000000000000E+000 -0.141803700094382E+000 0.000000000000000E+000  0.000000000000000E+000 -0.127684716968101E+000 0.000000000000000E+000  0.000000000000000E+000 -0.563531587388058E-001 0.000000000000000E+000  0.000000000000000E+000  0.687533091366693E-001 0.000000000000000E+000  0.000000000000000E+000  0.236339500157305E+000 