<?xml version="1.0" encoding="UTF-8"?>
<VTKFile type="PolyData" version="1.0" byte_order="LittleEndian">

  <PolyData>

    <Piece NumberOfPoints="420" NumberOfVerts="0" NumberOfLines="0" NumberOfStrips="0" NumberOfPolys="0">

      <Points>

        <DataArray type="Float64" NumberOfComponents="3" Name="Points" format="ascii">
           0.000000000000000E+000  0.000000000000000E+000  0.000000000000000E+000 0.100000000000000E+001  0.000000000000000E+000  0.000000000000000E+000 0.100000000000000E+001  0.100000000000000E+001  0.000000000000000E+000 0.526315789473684E-001  0.000000000000000E+000  0.000000000000000E+000 0.105263157894737E+000  0.000000000000000E+000  0.000000000000000E+000 0.157894736842105E+000  0.000000000000000E+000  0.000000000000000E+000 0.210526315789474E+000  0.000000000000000E+000  0.000000000000000E+000 0.263157894736842E+000  0.000000000000000E+000  0.000000000000000E+000 0.315789473684211E+000  0.000000000000000E+000  0.000000000000000E+000 0.368421052631579E+000  0.000000000000000E+000  0.000000000000000E+000 0.421052631578947E+000  0.000000000000000E+000  0.000000000000000E+000 0.473684210526316E+000  0.000000000000000E+000  0.000000000000000E+000 0.526315789473684E+000  0.000000000000000E+000  0.000000000000000E+000 0.578947368421053E+000  0.000000000000000E+000  0.000000000000000E+000 0.631578947368421E+000  0.000000000000000E+000  0.000000000000000E+000 0.684210526315789E+000  0.000000000000000E+000  0.000000000000000E+000 0.736842105263158E+000  0.000000000000000E+000  0.000000000000000E+000 0.789473684210526E+000  0.000000000000000E+000  0.000000000000000E+000 0.842105263157895E+000  0.000000000000000E+000  0.000000000000000E+000 0.894736842105263E+000  0.000000000000000E+000  0.000000000000000E+000 0.947368421052632E+000  0.000000000000000E+000  0.000000000000000E+000 0.100000000000000E+001  0.526315789473684E-001  0.409828421199521E-014 0.100000000000000E+001  0.105263157894737E+000  0.757380269611474E-014 0.100000000000000E+001  0.157894736842105E+000  0.108663078535187E-013 0.100000000000000E+001  0.210526315789474E+000  0.140165656858926E-013 0.100000000000000E+001  0.263157894736842E+000  0.162092561595273E-013 0.100000000000000E+001  0.315789473684211E+000  0.175415237890775E-013 0.100000000000000E+001  0.368421052631579E+000  0.193178806284777E-013 0.100000000000000E+001  0.421052631578947E+000  0.195399252334028E-013 0.100000000000000E+001  0.473684210526316E+000  0.226485497023532E-013 0.100000000000000E+001  0.526315789473684E+000  0.213162820728030E-013 0.100000000000000E+001  0.578947368421053E+000  0.204281036531029E-013 0.100000000000000E+001  0.631578947368421E+000  0.159872115546023E-013 0.100000000000000E+001  0.684210526315789E+000  0.195399252334028E-013 0.100000000000000E+001  0.736842105263158E+000  0.177635683940025E-013 0.100000000000000E+001  0.789473684210526E+000  0.106581410364015E-013 0.100000000000000E+001  0.842105263157895E+000  0.710542735760100E-014 0.100000000000000E+001  0.894736842105263E+000  0.710542735760100E-014 0.100000000000000E+001  0.947368421052632E+000  0.710542735760100E-014 0.947368421052632E+000  0.947368421052632E+000 -0.439223148993641E+000 0.894736842105263E+000  0.894736842105263E+000 -0.562488010374388E+000 0.842105263157895E+000  0.842105263157895E+000 -0.464084836672527E+000 0.789473684210526E+000  0.789473684210526E+000 -0.226517598852062E+000 0.736842105263158E+000  0.736842105263158E+000  0.794960136892762E-001 0.684210526315789E+000  0.684210526315789E+000  0.395024593120064E+000 0.631578947368421E+000  0.631578947368421E+000  0.672923013175160E+000 0.578947368421053E+000  0.578947368421053E+000  0.877832429155697E+000 0.526315789473684E+000  0.526315789473684E+000  0.986180277929112E+000 0.473684210526316E+000  0.473684210526316E+000  0.986180277929113E+000 0.421052631578947E+000  0.421052631578947E+000  0.877832429155699E+000 0.368421052631579E+000  0.368421052631579E+000  0.672923013175160E+000 0.315789473684211E+000  0.315789473684211E+000  0.395024593120066E+000 0.263157894736842E+000  0.263157894736842E+000  0.794960136892747E-001 0.210526315789474E+000  0.210526315789474E+000 -0.226517598852065E+000 0.157894736842105E+000  0.157894736842105E+000 -0.464084836672524E+000 0.105263157894737E+000  0.105263157894737E+000 -0.562488010374383E+000 0.526315789473685E-001  0.526315789473685E-001 -0.439223148993639E+000 0.105263157894737E+000  0.526315789473684E-001 -0.383514552527989E+000 0.947368421052632E+000  0.526315789473684E-001  0.690602435524937E-002 0.947368421052632E+000  0.894736842105263E+000 -0.383514552527991E+000 0.157894736842105E+000  0.526315789473684E-001 -0.331489169051803E+000 0.210526315789474E+000  0.526315789473684E-001 -0.283146998565082E+000 0.263157894736842E+000  0.526315789473684E-001 -0.238488041067825E+000 0.315789473684211E+000  0.526315789473684E-001 -0.197512296560033E+000 0.368421052631579E+000  0.526315789473684E-001 -0.160219765041705E+000 0.421052631578947E+000  0.526315789473684E-001 -0.126610446512842E+000 0.473684210526316E+000  0.526315789473684E-001 -0.966843409734425E-001 0.526315789473684E+000  0.526315789473684E-001 -0.704414484235079E-001 0.578947368421053E+000  0.526315789473684E-001 -0.478817688630378E-001 0.631578947368421E+000  0.526315789473684E-001 -0.290053022920320E-001 0.684210526315789E+000  0.526315789473684E-001 -0.138120487104907E-001 0.736842105263158E+000  0.526315789473684E-001 -0.230200811841398E-002 0.789473684210526E+000  0.526315789473684E-001  0.552481948419857E-002 0.842105263157895E+000  0.526315789473684E-001  0.966843409734654E-002 0.894736842105263E+000  0.526315789473684E-001  0.101288357210301E-001 0.947368421052632E+000  0.105263157894737E+000  0.101288357210337E-001 0.947368421052631E+000  0.157894736842105E+000  0.966843409735340E-002 0.947368421052632E+000  0.210526315789474E+000  0.552481948420852E-002 0.947368421052631E+000  0.263157894736842E+000 -0.230200811840148E-002 0.947368421052632E+000  0.315789473684211E+000 -0.138120487104773E-001 0.947368421052632E+000  0.368421052631579E+000 -0.290053022920165E-001 0.947368421052632E+000  0.421052631578947E+000 -0.478817688630220E-001 0.947368421052632E+000  0.473684210526316E+000 -0.704414484234883E-001 0.947368421052632E+000  0.526315789473684E+000 -0.966843409734226E-001 0.947368421052632E+000  0.578947368421053E+000 -0.126610446512825E+000 0.947368421052632E+000  0.631578947368421E+000 -0.160219765041694E+000 0.947368421052632E+000  0.684210526315789E+000 -0.197512296560019E+000 0.947368421052632E+000  0.736842105263158E+000 -0.238488041067814E+000 0.947368421052632E+000  0.789473684210526E+000 -0.283146998565062E+000 0.947368421052632E+000  0.842105263157895E+000 -0.331489169051792E+000 0.894736842105263E+000  0.842105263157895E+000 -0.486184114609308E+000 0.842105263157895E+000  0.789473684210526E+000 -0.396405797991111E+000 0.789473684210526E+000  0.736842105263158E+000 -0.190790432854257E+000 0.736842105263158E+000  0.684210526315789E+000  0.658374321866830E-001 0.684210526315789E+000  0.631578947368421E+000  0.320439530083409E+000 0.631578947368421E+000  0.578947368421053E+000  0.531763875353935E+000 0.578947368421053E+000  0.526315789473684E+000  0.670344764082532E+000 0.526315789473684E+000  0.473684210526316E+000  0.718502773919785E+000 0.473684210526316E+000  0.421052631578947E+000  0.670344764082536E+000 0.421052631578947E+000  0.368421052631579E+000  0.531763875353934E+000 0.368421052631579E+000  0.315789473684211E+000  0.320439530083409E+000 0.315789473684211E+000  0.263157894736842E+000  0.658374321866768E-001 0.263157894736842E+000  0.210526315789474E+000 -0.190790432854260E+000 0.210526315789474E+000  0.157894736842105E+000 -0.396405797991114E+000 0.157894736842105E+000  0.105263157894737E+000 -0.486184114609311E+000 0.210526315789474E+000  0.105263157894737E+000 -0.415282264562120E+000 0.894736842105263E+000  0.105263157894737E+000  0.148556257241788E-001 0.894736842105263E+000  0.789473684210526E+000 -0.415282264562105E+000 0.263157894736842E+000  0.105263157894737E+000 -0.349782460232810E+000 0.315789473684211E+000  0.105263157894737E+000 -0.289684701621381E+000 0.368421052631579E+000  0.105263157894737E+000 -0.234988988727834E+000 0.421052631578947E+000  0.105263157894737E+000 -0.185695321552168E+000 0.473684210526316E+000  0.105263157894737E+000 -0.141803700094382E+000 0.526315789473684E+000  0.105263157894737E+000 -0.103314124354478E+000 0.578947368421053E+000  0.105263157894737E+000 -0.702265943324550E-001 0.631578947368421E+000  0.105263157894737E+000 -0.425411100283132E-001 0.684210526315789E+000  0.105263157894737E+000 -0.202576714420524E-001 0.736842105263158E+000  0.105263157894737E+000 -0.337627857367291E-002 0.789473684210526E+000  0.105263157894737E+000  0.810306857682533E-002 0.842105263157895E+000  0.105263157894737E+000  0.141803700094428E-001 0.894736842105263E+000  0.157894736842105E+000  0.141803700094458E-001 0.894736842105263E+000  0.210526315789474E+000  0.810306857683182E-002 0.894736842105263E+000  0.263157894736842E+000 -0.337627857366474E-002 0.894736842105263E+000  0.315789473684211E+000 -0.202576714420424E-001 0.894736842105263E+000  0.368421052631579E+000 -0.425411100282997E-001 0.894736842105263E+000  0.421052631578947E+000 -0.702265943324418E-001 0.894736842105263E+000  0.473684210526316E+000 -0.103314124354464E+000 0.894736842105263E+000  0.526315789473684E+000 -0.141803700094368E+000 0.894736842105263E+000  0.578947368421053E+000 -0.185695321552154E+000 0.894736842105263E+000  0.631578947368421E+000 -0.234988988727817E+000 0.894736842105263E+000  0.684210526315789E+000 -0.289684701621370E+000 0.894736842105263E+000  0.736842105263158E+000 -0.349782460232802E+000 0.842105263157895E+000  0.736842105263158E+000 -0.333883257494946E+000 0.789473684210526E+000  0.684210526315789E+000 -0.158009837248020E+000 0.736842105263158E+000  0.631578947368421E+000  0.534065883472365E-001 0.684210526315789E+000  0.578947368421053E+000  0.253220893025687E+000 0.6
[...]
        <PointData>

          <DataArray type="Float64" NumberOfComponents="3" Name="N12" format="ascii">
             0.000000000000000E+000  0.000000000000000E+000  0.000000000000000E+000 0.000000000000000E+000  0.000000000000000E+000  0.000000000000000E+000 0.000000000000000E+000  0.000000000000000E+000  0.000000000000000E+000 0.000000000000000E+000  0.000000000000000E+000  0.000000000000000E+000 0.000000000000000E+000  0.000000000000000E+000  0.000000000000000E+000 0.000000000000000E+000  0.000000000000000E+000  0.000000000000000E+000 0.000000000000000E+000  0.000000000000000E+000  0.000000000000000E+000 0.000000000000000E+000  0.000000000000000E+000  0.000000000000000E+000 0.000000000000000E+000  0.000000000000000E+000  0.000000000000000E+000 0.000000000000000E+000  0.000000000000000E+000  0.000000000000000E+000 0.000000000000000E+000  0.000000000000000E+000  0.000000000000000E+000 0.000000000000000E+000  0.000000000000000E+000  0.000000000000000E+000 0.000000000000000E+000  0.000000000000000E+000  0.000000000000000E+000 0.000000000000000E+000  0.000000000000000E+000  0.000000000000000E+000 0.000000000000000E+000  0.000000000000000E+000  0.000000000000000E+000 0.000000000000000E+000  0.000000000000000E+000  0.000000000000000E+000 0.000000000000000E+000  0.000000000000000E+000  0.000000000000000E+000 0.000000000000000E+000  0.000000000000000E+000  0.000000000000000E+000 0.000000000000000E+000  0.000000000000000E+000  0.000000000000000E+000 0.000000000000000E+000  0.000000000000000E+000  0.000000000000000E+000 0.000000000000000E+000  0.000000000000000E+000  0.000000000000000E+000 0.000000000000000E+000  0.000000000000000E+000  0.409828421199521E-014 0.000000000000000E+000  0.000000000000000E+000  0.757380269611474E-014 0.000000000000000E+000  0.000000000000000E+000  0.108663078535187E-013 0.000000000000000E+000  0.000000000000000E+000  0.140165656858926E-013 0.000000000000000E+000  0.000000000000000E+000  0.162092561595273E-013 0.000000000000000E+000  0.000000000000000E+000  0.175415237890775E-013 0.000000000000000E+000  0.000000000000000E+000  0.193178806284777E-013 0.000000000000000E+000  0.000000000000000E+000  0.195399252334028E-013 0.000000000000000E+000  0.000000000000000E+000  0.226485497023532E-013 0.000000000000000E+000  0.000000000000000E+000  0.213162820728030E-013 0.000000000000000E+000  0.000000000000000E+000  0.204281036531029E-013 0.000000000000000E+000  0.000000000000000E+000  0.159872115546023E-013 0.000000000000000E+000  0.000000000000000E+000  0.195399252334028E-013 0.000000000000000E+000  0.000000000000000E+000  0.177635683940025E-013 0.000000000000000E+000  0.000000000000000E+000  0.106581410364015E-013 0.000000000000000E+000  0.000000000000000E+000  0.710542735760100E-014 0.000000000000000E+000  0.000000000000000E+000  0.710542735760100E-014 0.000000000000000E+000  0.000000000000000E+000  0.710542735760100E-014 0.000000000000000E+000  0.000000000000000E+000 -0.439223148993641E+000 0.000000000000000E+000  0.000000000000000E+000 -0.562488010374388E+000 0.000000000000000E+000  0.000000000000000E+000 -0.464084836672527E+000 0.000000000000000E+000  0.000000000000000E+000 -0.226517598852062E+000 0.000000000000000E+000  0.000000000000000E+000  0.794960136892762E-001 0.000000000000000E+000  0.000000000000000E+000  0.395024593120064E+000 0.000000000000000E+000  0.000000000000000E+000  0.672923013175160E+000 0.000000000000000E+000  0.000000000000000E+000  0.877832429155697E+000 0.000000000000000E+000  0.000000000000000E+000  0.986180277929112E+000 0.000000000000000E+000  0.000000000000000E+000  0.986180277929113E+000 0.000000000000000E+000  0.000000000000000E+000  0.877832429155699E+000 0.000000000000000E+000  0.000000000000000E+000  0.672923013175160E+000 0.000000000000000E+000  0.000000000000000E+000  0.395024593120066E+000 0.000000000000000E+000  0.000000000000000E+000  0.794960136892747E-001 0.000000000000000E+000  0.000000000000000E+000 -0.226517598852065E+000 0.000000000000000E+000  0.000000000000000E+000 -0.464084836672524E+000 0.000000000000000E+000  0.000000000000000E+000 -0.562488010374383E+000 0.000000000000000E+000  0.000000000000000E+000 -0.439223148993639E+000 0.000000000000000E+000  0.000000000000000E+000 -0.383514552527989E+000 0.000000000000000E+000  0.000000000000000E+000  0.690602435524937E-002 0.000000000000000E+000  0.000000000000000E+000 -0.383514552527991E+000 0.000000000000000E+000  0.000000000000000E+000 -0.331489169051803E+000 0.000000000000000E+000  0.000000000000000E+000 -0.283146998565082E+000 0.000000000000000E+000  0.000000000000000E+000 -0.238488041067825E+000 0.000000000000000E+000  0.000000000000000E+000 -0.197512296560033E+000 0.000000000000000E+000  0.000000000000000E+000 -0.160219765041705E+000 0.000000000000000E+000  0.000000000000000E+000 -0.126610446512842E+000 0.000000000000000E+000  0.000000000000000E+000 -0.966843409734425E-001 0.000000000000000E+000  0.000000000000000E+000 -0.704414484235079E-001 0.000000000000000E+000  0.000000000000000E+000 -0.478817688630378E-001 0.000000000000000E+000  0.000000000000000E+000 -0.290053022920320E-001 0.000000000000000E+000  0.000000000000000E+000 -0.138120487104907E-001 0.000000000000000E+000  0.000000000000000E+000 -0.230200811841398E-002 0.000000000000000E+000  0.000000000000000E+000  0.552481948419857E-002 0.000000000000000E+000  0.000000000000000E+000  0.966843409734654E-002 0.000000000000000E+000  0.000000000000000E+000  0.101288357210301E-001 0.000000000000000E+000  0.000000000000000E+000  0.101288357210337E-001 0.000000000000000E+000  0.000000000000000E+000  0.966843409735340E-002 0.000000000000000E+000  0.000000000000000E+000  0.552481948420852E-002 0.000000000000000E+000  0.000000000000000E+000 -0.230200811840148E-002 0.000000000000000E+000  0.000000000000000E+000 -0.138120487104773E-001 0.000000000000000E+000  0.000000000000000E+000 -0.290053022920165E-001 0.000000000000000E+000  0.000000000000000E+000 -0.478817688630220E-001 0.000000000000000E+000  0.000000000000000E+000 -0.704414484234883E-001 0.000000000000000E+000  0.000000000000000E+000 -0.966843409734226E-001 0.000000000000000E+000  0.000000000000000E+000 -0.126610446512825E+000 0.000000000000000E+000  0.000000000000000E+000 -0.160219765041694E+000 0.000000000000000E+000  0.000000000000000E+000 -0.197512296560019E+000 0.000000000000000E+000  0.000000000000000E+000 -0.238488041067814E+000 0.000000000000000E+000  0.000000000000000E+000 -0.283146998565062E+000 0.000000000000000E+000  0.000000000000000E+000 -0.331489169051792E+000 0.000000000000000E+000  0.000000000000000E+000 -0.486184114609308E+000 0.000000000000000E+000  0.000000000000000E+000 -0.396405797991111E+000 0.000000000000000E+000  0.000000000000000E+000 -0.190790432854257E+000 0.000000000000000E+000  0.000000000000000E+000  0.658374321866830E-001 0.000000000000000E+000  0.000000000000000E+000  0.320439530083409E+000 0.000000000000000E+000  0.000000000000000E+000  0.531763875353935E+000 0.000000000000000E+000  0.000000000000000E+000  0.670344764082532E+000 0.000000000000000E+000  0.000000000000000E+000  0.718502773919785E+000 0.000000000000000E+000  0.000000000000000E+000  0.670344764082536E+000 0.000000000000000E+000  0.000000000000000E+000  0.531763875353934E+000 0.000000000000000E+000  0.000000000000000E+000  0.320439530083409E+000 0.000000000000000E+000  0.000000000000000E+000  0.658374321866768E-001 0.000000000000000E+000  0.000000000000000E+000 -0.190790432854260E+000 0.000000000000000E+000  0.000000000000000E+000 -0.396405797991114E+000 0.000000000000000E+000  0.000000000000000E+000 -0.486184114609311E+000 0.000000000000000E+000  0.000000000000000E+000 -0.415282264562120E+000 0.000000000000000E+000  0.000000000000000E+000  0.148556257241788E-001 0.000000000000000E+000  0.000000000000000E+000 -0.415282264562105E+000 0.000000000000000E+000  0.000000000000000E+000 -0.349782460232810E+000 0.000000000000000E+000  0.000000000000000E+000 -0.289684701621381E+000 0.000000000000000E+000  0.000000000000000E+000 -0.234988988727834E+000 0.000000000000000E+000  0.000000000000000E+000 -0.185695321552168E+000 0.000000000000000E+000  0.000000000000000E+000 -0.141803700094382E+000 0.000000000000000E+000  0.000000000000000E+000 -0.103314124354478E+000 0.000000000000000E+000  0.000000000000000E+000 -0.702265943324550E-001 0.000000000000000E+000  0.000000000000000E+000 -0.425411100283132E-001 0.000000000000000E+000  0.000000000000000E+000 -0.202576714420524E-001 0.000000000000000E+000  0.000000000000000E+000 -0.337627857367291E-002 0.000000000000000E+000  0.000000000000000E+000  0.810306857682533E-002 0.000000000000000E+000  0.000000000000000E+000  0.141803700094428E-001 0.000000000000000E+000  0.000000000000000E+000  0.141803700094458E-001 0.000000000000000E+000  0.000000000000000E+000  0.810306857683182E-002 0.000000000000000E+000  0.000000000000000E+000 -0.337627857366474E-002 0.000000000000000E+000  0.000000000000000E+000 -0.202576714420424E-001 0.000000000000000E+000  0.000000000000000E+000 -0.425411100282997E-001 0.000000000000000E+000  0.000000000000000E+000 -0.702265943324418E-001 0.000000000000000E+000  0.000000000000000E+000 -0.103314124354464E+000 0.000000000000000E+000  0.000000000000000E+000 -0.141803700094368E+000 0.000000000000000E+000  0.000000000000000E+000 -0.185695321552154E+000 0.000000000000000E+000  0.000000000000000E+000 -0.234988988727817E+000 0.000000000000000E+000  0.000000000000000E+000 -0.289684701621370E+000 0.000000000000000E+000  0.000000000000000E+000 -0.349782460232802E+000 0.000000000000000E+000  0.000000000000000E+000 -0.333883257494946E+000 0.000000000000000E+000  0.000000000000000E+000 -0.158009837248020E+000 0.000000000000000E+000  0.000000000000000E+000  0.534065883472365E-001 0.000000000000000E+000  0.000000000000000E+000  0.253220893025687E+000 0.000000000000000E+000  0.000000000000000E+000  0.406074232088462E+000 0.000000000000000E+000  0.000000000000000E+000  0.488394042402991E+000 0.000000000000000E+000  0.000000000000000E+000  0.488394042402990E+000 0.000000000000000E+000  0.000000000000000E+000  0.406074232088460E+000 0.000000000000000E+000  0.000000000000000E+000  0.253220893025682E+000 0.000000000000000E+000  0.000000000000000E+000  0.534065883472347E-001 0.000000000000000E+000  0.000000000000000E+000 -0.158009837248026E+000 0.000000000000000E+000  0.000000000000000E+000 -0.333883257494955E+000 0.000000000000000E+000  0.000000000000000E+000 -0.276517215184046E+000 0.000000000000000E+000  0.000000000000000E+000  0.135358077362882E-001 0.000000000000000E+000  0.000000000000000E+000 -0.276517215184038E+000 0.000000000000000E+000  0.000000000000000E+000 -0.224307671058387E+000 0.000000000000000E+000  0.000000000000000E+000 -0.177254625117978E+000 0.000000000000000E+000  0.000000000000000E+000 -0.135358077362819E+000 0.000000000000000E+000  0.000000000000000E+000 -0.986180277929108E-001 0.000000000000000E+000  0.000000000000000E+000 -0.670344764082519E-001 0.000000000000000E+000  0.000000000000000E+000 -0.406074232088437E-001 0.000000000000000E+000  0.000000000000000E+000 -0.193368681946852E-001 0.000000000000000E+000  0.000000000000000E+000 -0.322281136577741E-002 0.000000000000000E+000  0.000000000000000E+000  0.773474727788057E-002 0.000000000000000E+000  0.000000000000000E+000  0.773474727788348E-002 0.000000000000000E+000  0.000000000000000E+000 -0.322281136577185E-002 0.000000000000000E+000  0.000000000000000E+000 -0.193368681946797E-001 0.000000000000000E+000  0.000000000000000E+000 -0.406074232088354E-001 0.000000000000000E+000  0.000000000000000E+000 -0.670344764082400E-001 0.000000000000000E+000  0.000000000000000E+000 -0.986180277928970E-001 0.000000000000000E+000  0.000000000000000E+000 -0.135358077362809E+000 0.000000000000000E+000  0.000000000000000E+000 -0.177254625117964E+000 0.000000000000000E+000  0.000000000000000E+000 -0.224307671058380E+000 0.000000000000000E+000  0.000000000000000E+000 -0.128175812033358E+000 0.000000000000000E+000  0.000000000000000E+000  0.422034821709536E-001 0.000000000000000E+000  0.000000000000000E+000  0.193368681946892E+000 0.000000000000000E+000  0.000000000000000E+000  0.295854083378738E+000 0.000000000000000E+000  0.000000000000000E+000  0.331980264117068E+000 0.000000000000000E+000  0.000000000000000E+000  0.295854083378736E+000 0.000000000000000E+000  0.000000000000000E+000  0.193368681946886E+000 0.000000000000000E+000  0.000000000000000E+000  0.422034821709472E-001 0.000000000000000E+000  0.000000000000000E+000 -0.128175812033364E+000 0.000000000000000E+000  0.000000000000000E+000 -0.101288357210273E+000 0.000000000000000E+000  0.000000000000000E+000  0.441985558736327E-002 0.000000000000000E+000  0.000000000000000E+000 -0.101288357210265E+000 0.000000000000000E+000  0.000000000000000E+000 -0.773474727787535E-001 0.000000000000000E+000  0.000000000000000E+000 -0.563531587388053E-001 0.000000000000000E+000  0.000000000000000E+000 -0.383054150904288E-001 0.000000000000000E+000  0.000000000000000E+000 -0.232042418336238E-001 0.000000000000000E+000  0.000000000000000E+000 -0.110496389683896E-001 0.000000000000000E+000  0.000000000000000E+000 -0.184160649472737E-002 0.000000000000000E+000  0.000000000000000E+000 -0.184160649472465E-002 0.000000000000000E+000  0.000000000000000E+000 -0.110496389683862E-001 0.000000000000000E+000  0.000000000000000E+000 -0.232042418336174E-001 0.000000000000000E+000  0.000000000000000E+000 -0.383054150904236E-001 0.000000000000000E+000  0.000000000000000E+000 -0.563531587387964E-001 0.000000000000000E+000  0.000000000000000E+000 -0.773474727787473E-001 0.000000000000000E+000  0.000000000000000E+000  0.322281136578217E-001 0.000000000000000E+000  0.000000000000000E+000  0.140882896847021E+000 0.000000000000000E+000  0.000000000000000E+000  0.201103429224763E+000 0.000000000000000E+000  0.000000000000000E+000  0.201103429224763E+000 0.000000000000000E+000  0.000000000000000E+000  0.140882896847018E+000 0.000000000000000E+000  0.000000000000000E+000  0.322281136578146E-001 0.000000000000000E+000  0.000000000000000E+000  0.234804828078372E-001 0.000000000000000E+000  0.000000000000000E+000  0.767336039477151E-003 0.000000000000000E+000  0.000000000000000E+000  0.234804828078423E-001 0.000000000000000E+000  0.000000000000000E+000  0.159605896210155E-001 0.000000000000000E+000  0.000000000000000E+000  0.966843409734769E-002 0.000000000000000E+000  0.000000000000000E+000  0.460401623683504E-002 0.000000000000000E+000  0.000000000000000E+000  0.460401623683726E-002 0.000000000000000E+000  0.000000000000000E+000  0.966843409735141E-002 0.000000000000000E+000  0.000000000000000E+000  0.159605896210193E-001 0.000000000000000E+000  0.000000000000000E+000  0.957635377260806E-001 0.000000000000000E+000  0.000000000000000E+000  0.121822269626542E+000 0.000000000000000E+000  0.000000000000000E+000  0.957635377260778E-001 0.000000000000000E+000  0.000000000000000E+000  0.580106045840678E-001 0.000000000000000E+000  0.000000000000000E+000  0.276240974209884E-001 0.000000000000000E+000  0.000000000000000E+000  0.580106045840700E-001 0.000000000000000E+000  0.000000000000000E+000  0.000000000000000E+000 0.000000000000000E+000  0.000000000000000E+000  0.284217094304040E-013 0.000000000000000E+000  0.000000000000000E+000  0.000000000000000E+000 0.000000000000000E+000  0.000000000000000E+000 -0.439223148993639E+000 0.000000000000000E+000  0.000000000000000E+000 -0.562488010374383E+000 0.000000000000000E+000  0.000000000000000E+000 -0.464084836672524E+000 0.000000000000000E+000  0.000000000000000E+000 -0.226517598852065E+000 0.000000000000000E+000  0.000000000000000E+000  0.794960136892755E-001 0.000000000000000E+000  0.000000000000000E+000  0.395024593120065E+000 0.000000000000000E+000  0.000000000000000E+000  0.672923013175161E+000 0.000000000000000E+000  0.000000000000000E+000  0.877832429155701E+000 0.000000000000000E+000  0.000000000000000E+000  0.986180277929117E+000 0.000000000000000E+000  0.000000000000000E+000  0.986180277929119E+000 0.000000000000000E+000  0.000000000000000E+000  0.877832429155703E+000 0.000000000000000E+000  0.000000000000000E+000  0.672923013175167E+000 0.000000000000000E+000  0.000000000000000E+000  0.395024593120073E+000 0.000000000000000E+000  0.000000000000000E+000  0.794960136892868E-001 0.000000000000000E+000  0.000000000000000E+000 -0.226517598852048E+000 0.000000000000000E+000  0.000000000000000E+000 -0.464084836672512E+000 0.000000000000000E+000  0.000000000000000E+000 -0.562488010374366E+000 0.000000000000000E+000  0.000000000000000E+000 -0.439223148993619E+000 0.000000000000000E+000  0.000000000000000E+000  0.210348006962958E-013 0.000000000000000E+000  0.000000000000000E+000  0.217307110400020E-013 0.000000000000000E+000  0.000000000000000E+000  0.143386844317059E-013 0.000000000000000E+000  0.000000000000000E+000  0.208848710491643E-013 0.000000000000000E+000  0.000000000000000E+000  0.173819108598890E-013 0.000000000000000E+000  0.000000000000000E+000  0.113780118912141E-013 0.000000000000000E+000  0.000000000000000E+000  0.931639330631646E-014 0.000000000000000E+000  0.000000000000000E+000  0.107621256761647E-013 0.000000000000000E+000  0.000000000000000E+000  0.684781874504404E-014 0.000000000000000E+000  0.000000000000000E+000  0.514261718216008E-014 0.000000000000000E+000  0.000000000000000E+000  0.478320483003490E-014 0.000000000000000E+000  0.000000000000000E+000  0.269105364240816E-014 0.000000000000000E+000  0.000000000000000E+000  0.245420788123829E-014 0.000000000000000E+000  0.000000000000000E+000  0.233687545075082E-014 0.000000000000000E+000  0.000000000000000E+000  0.194076604518931E-014 0.000000000000000E+000  0.000000000000000E+000  0.109486812419020E-014 0.000000000000000E+000  0.000000000000000E+000  0.410560425095361E-015 0.000000000000000E+000  0.000000000000000E+000  0.881222114801000E-016 0.000000000000000E+000  0.000000000000000E+000  0.000000000000000E+000 0.000000000000000E+000  0.000000000000000E+000  0.000000000000000E+000 0.000000000000000E+000  0.000000000000000E+000  0.000000000000000E+000 0.000000000000000E+000  0.000000000000000E+000  0.000000000000000E+000 0.000000000000000E+000  0.000000000000000E+000  0.000000000000000E+000 0.000000000000000E+000  0.000000000000000E+000  0.000000000000000E+000 0.000000000000000E+000  0.000000000000000E+000  0.000000000000000E+000 0.000000000000000E+000  0.000000000000000E+000  0.000000000000000E+000 0.000000000000000E+000  0.000000000000000E+000  0.000000000000000E+000 0.000000000000000E+000  0.000000000000000E+000  0.000000000000000E+000 0.000000000000000E+000  0.000000000000000E+000  0.000000000000000E+000 0.000000000000000E+000  0.000000000000000E+000  0.000000000000000E+000 0.000000000000000E+000  0.000000000000000E+000  0.000000000000000E+000 0.000000000000000E+000  0.000000000000000E+000  0.000000000000000E+000 0.000000000000000E+000  0.000000000000000E+000  0.000000000000000E+000 0.000000000000000E+000  0.000000000000000E+000  0.000000000000000E+000 0.000000000000000E+000  0.000000000000000E+000  0.000000000000000E+000 0.000000000000000E+000  0.000000000000000E+000  0.000000000000000E+000 0.000000000000000E+000  0.000000000000000E+000 -0.383514552527989E+000 0.000000000000000E+000  0.000000000000000E+000 -0.383514552527971E+000 0.000000000000000E+000  0.000000000000000E+000  0.690602435524585E-002 0.000000000000000E+000  0.000000000000000E+000 -0.486184114609311E+000 0.000000000000000E+000  0.000000000000000E+000 -0.396405797991114E+000 0.000000000000000E+000  0.000000000000000E+000 -0.190790432854260E+000 0.000000000000000E+000  0.000000000000000E+000  0.658374321866781E-001 0.000000000000000E+000  0.000000000000000E+000  0.320439530083410E+000 0.000000000000000E+000  0.000000000000000E+000  0.531763875353935E+000 0.000000000000000E+000  0.000000000000000E+000  0.670344764082536E+000 0.000000000000000E+000  0.000000000000000E+000  0.718502773919786E+000 0.000000000000000E+000  0.000000000000000E+000  0.670344764082541E+000 0.000000000000000E+000  0.000000000000000E+000  0.531763875353937E+000 