<?xml version="1.0" encoding="UTF-8"?>
<VTKFile type="PolyData" version="1.0" byte_order="LittleEndian">

  <PolyData>

    <Piece NumberOfPoints="420" NumberOfVerts="0" NumberOfLines="0" NumberOfStrips="0" NumberOfPolys="0">

      <Points>

        <DataArray type="Float64" NumberOfComponents="3" Name="Points" format="ascii">
           0.000000000000000E+000  0.000000000000000E+000  0.000000000000000E+000 0.100000000000000E+001  0.000000000000000E+000  0.000000000000000E+000 0.100000000000000E+001  0.100000000000000E+001  0.710542735760100E-014 0.526315789473684E-001  0.000000000000000E+000  0.000000000000000E+000 0.105263157894737E+000  0.000000000000000E+000  0.000000000000000E+000 0.157894736842105E+000  0.000000000000000E+000  0.000000000000000E+000 0.210526315789474E+000  0.000000000000000E+000  0.000000000000000E+000 0.263157894736842E+000  0.000000000000000E+000  0.000000000000000E+000 0.315789473684211E+000  0.000000000000000E+000  0.000000000000000E+000 0.368421052631579E+000  0.000000000000000E+000  0.000000000000000E+000 0.421052631578947E+000  0.000000000000000E+000  0.000000000000000E+000 0.473684210526316E+000  0.000000000000000E+000  0.000000000000000E+000 0.526315789473684E+000  0.000000000000000E+000  0.000000000000000E+000 0.578947368421053E+000  0.000000000000000E+000  0.000000000000000E+000 0.631578947368421E+000  0.000000000000000E+000  0.000000000000000E+000 0.684210526315789E+000  0.000000000000000E+000  0.000000000000000E+000 0.736842105263158E+000  0.000000000000000E+000  0.000000000000000E+000 0.789473684210526E+000  0.000000000000000E+000  0.000000000000000E+000 0.842105263157895E+000  0.000000000000000E+000  0.000000000000000E+000 0.894736842105263E+000  0.000000000000000E+000  0.000000000000000E+000 0.947368421052632E+000  0.000000000000000E+000  0.000000000000000E+000 0.100000000000000E+001  0.526315789473684E-001 -0.335632842115888E-014 0.100000000000000E+001  0.105263157894737E+000 -0.669458534826050E-014 0.100000000000000E+001  0.157894736842105E+000 -0.838302469292299E-014 0.100000000000000E+001  0.210526315789474E+000 -0.108292737615513E-013 0.100000000000000E+001  0.263157894736842E+000 -0.133483248744741E-013 0.100000000000000E+001  0.315789473684211E+000 -0.120038623780006E-013 0.100000000000000E+001  0.368421052631579E+000 -0.125388914343515E-013 0.100000000000000E+001  0.421052631578947E+000 -0.149505768732734E-013 0.100000000000000E+001  0.473684210526316E+000 -0.154238816265942E-013 0.100000000000000E+001  0.526315789473684E+000 -0.141771427689075E-013 0.100000000000000E+001  0.578947368421053E+000 -0.154250640834186E-013 0.100000000000000E+001  0.631578947368421E+000 -0.909704358978335E-014 0.100000000000000E+001  0.684210526315789E+000 -0.777059282997183E-014 0.100000000000000E+001  0.736842105263158E+000 -0.158811516519974E-013 0.100000000000000E+001  0.789473684210526E+000 -0.500112219492957E-014 0.100000000000000E+001  0.842105263157895E+000  0.592801386486082E-014 0.100000000000000E+001  0.894736842105263E+000 -0.440326475482490E-014 0.100000000000000E+001  0.947368421052632E+000  0.190785149052857E-014 0.947368421052632E+000  0.947368421052632E+000  0.187843862462701E+000 0.894736842105263E+000  0.894736842105263E+000  0.229586943009962E+000 0.842105263157895E+000  0.842105263157895E+000  0.178758603755347E+000 0.789473684210526E+000  0.789473684210526E+000  0.810306857682214E-001 0.736842105263158E+000  0.736842105263158E+000 -0.257824909262472E-001 0.684210526315789E+000  0.684210526315789E+000 -0.111724127347089E+000 0.631578947368421E+000  0.631578947368421E+000 -0.154694945557504E+000 0.578947368421053E+000  0.578947368421053E+000 -0.140453188664909E+000 0.526315789473684E+000  0.526315789473684E+000 -0.626146208208925E-001 0.473684210526316E+000  0.473684210526316E+000  0.773474727787554E-001 0.421052631578947E+000  0.421052631578947E+000  0.270102285894063E+000 0.368421052631579E+000  0.368421052631579E+000  0.498461491240859E+000 0.315789473684211E+000  0.315789473684211E+000  0.737379240490788E+000 0.263157894736842E+000  0.263157894736842E+000  0.953952164271300E+000 0.210526315789474E+000  0.210526315789474E+000  0.110741937216565E+001 0.157894736842105E+000  0.157894736842105E+000  0.114916245271292E+001 0.105263157894737E+000  0.105263157894737E+000  0.102270547340797E+001 0.526315789473685E-001  0.526315789473685E-001  0.663714980701499E+000 0.105263157894737E+000  0.526315789473684E-001  0.511352736703985E+000 0.947368421052632E+000  0.526315789473684E-001  0.104357701368132E-001 0.947368421052632E+000  0.894736842105263E+000  0.177408092325879E+000 0.157894736842105E+000  0.526315789473684E-001  0.383054150904306E+000 0.210526315789474E+000  0.526315789473684E-001  0.276854843041413E+000 0.263157894736842E+000  0.526315789473684E-001  0.190790432854260E+000 0.315789473684211E+000  0.526315789473684E-001  0.122896540081798E+000 0.368421052631579E+000  0.526315789473684E-001  0.712087844629801E-001 0.421052631578947E+000  0.526315789473684E-001  0.337627857367576E-001 0.473684210526316E+000  0.526315789473684E-001  0.859416364208372E-002 0.526315789473684E+000  0.526315789473684E-001 -0.626146208208991E-002 0.578947368421053E+000  0.526315789473684E-001 -0.127684716968105E-001 0.631578947368421E+000  0.526315789473684E-001 -0.128912454631264E-001 0.684210526315789E+000  0.526315789473684E-001 -0.859416364208470E-002 0.736842105263158E+000  0.526315789473684E-001 -0.184160649473312E-002 0.789473684210526E+000  0.526315789473684E-001  0.540204571787942E-002 0.842105263157895E+000  0.526315789473684E-001  0.111724127347071E-001 0.894736842105263E+000  0.526315789473684E-001  0.135051142947010E-001 0.947368421052632E+000  0.105263157894737E+000  0.208715402736269E-001 0.947368421052631E+000  0.157894736842105E+000  0.313073104104403E-001 0.947368421052632E+000  0.210526315789474E+000  0.417430805472531E-001 0.947368421052631E+000  0.263157894736842E+000  0.521788506840694E-001 0.947368421052632E+000  0.315789473684211E+000  0.626146208208879E-001 0.947368421052632E+000  0.368421052631579E+000  0.730503909576996E-001 0.947368421052632E+000  0.421052631578947E+000  0.834861610945178E-001 0.947368421052632E+000  0.473684210526316E+000  0.939219312313312E-001 0.947368421052632E+000  0.526315789473684E+000  0.104357701368148E+000 0.947368421052632E+000  0.578947368421053E+000  0.114793471504968E+000 0.947368421052632E+000  0.631578947368421E+000  0.125229241641782E+000 0.947368421052632E+000  0.684210526315789E+000  0.135665011778602E+000 0.947368421052632E+000  0.736842105263158E+000  0.146100781915420E+000 0.947368421052632E+000  0.789473684210526E+000  0.156536552052233E+000 0.947368421052632E+000  0.842105263157895E+000  0.166972322189056E+000 0.894736842105263E+000  0.842105263157895E+000  0.216081828715253E+000 0.842105263157895E+000  0.789473684210526E+000  0.167586191020631E+000 0.789473684210526E+000  0.736842105263158E+000  0.756286400503412E-001 0.736842105263158E+000  0.684210526315789E+000 -0.239408844315203E-001 0.684210526315789E+000  0.631578947368421E+000 -0.103129963705002E+000 0.631578947368421E+000  0.578947368421053E+000 -0.141803700094380E+000 0.578947368421053E+000  0.526315789473684E+000 -0.127684716968100E+000 0.526315789473684E+000  0.473684210526316E+000 -0.563531587388052E-001 0.473684210526316E+000  0.421052631578947E+000  0.687533091366714E-001 0.421052631578947E+000  0.368421052631579E+000  0.236339500157304E+000 0.368421052631579E+000  0.315789473684211E+000  0.427252706777880E+000 0.315789473684211E+000  0.263157894736842E+000  0.614482700408991E+000 0.263157894736842E+000  0.210526315789474E+000  0.763161731417040E+000 0.210526315789474E+000  0.157894736842105E+000  0.830564529124239E+000 0.157894736842105E+000  0.105263157894737E+000  0.766108301808611E+000 0.210526315789474E+000  0.105263157894737E+000  0.553709686082827E+000 0.894736842105263E+000  0.105263157894737E+000  0.270102285894018E-001 0.894736842105263E+000  0.789473684210526E+000  0.202576714420540E+000 0.263157894736842E+000  0.105263157894737E+000  0.381580865708520E+000 0.315789473684211E+000  0.105263157894737E+000  0.245793080163596E+000 0.368421052631579E+000  0.105263157894737E+000  0.142417568925960E+000 0.421052631578947E+000  0.105263157894737E+000  0.675255714735156E-001 0.473684210526316E+000  0.105263157894737E+000  0.171883272841672E-001 0.526315789473684E+000  0.105263157894737E+000 -0.125229241641794E-001 0.578947368421053E+000  0.105263157894737E+000 -0.255369433936213E-001 0.631578947368421E+000  0.105263157894737E+000 -0.257824909262529E-001 0.684210526315789E+000  0.105263157894737E+000 -0.171883272841695E-001 0.736842105263158E+000  0.105263157894737E+000 -0.368321298946699E-002 0.789473684210526E+000  0.105263157894737E+000  0.108040914357601E-001 0.842105263157895E+000  0.105263157894737E+000  0.223448254694135E-001 0.894736842105263E+000  0.157894736842105E+000  0.405153428841041E-001 0.894736842105263E+000  0.210526315789474E+000  0.540204571788058E-001 0.894736842105263E+000  0.263157894736842E+000  0.675255714735061E-001 0.894736842105263E+000  0.315789473684211E+000  0.810306857682093E-001 0.894736842105263E+000  0.368421052631579E+000  0.945358000629109E-001 0.894736842105263E+000  0.421052631578947E+000  0.108040914357616E+000 0.894736842105263E+000  0.473684210526316E+000  0.121546028652317E+000 0.894736842105263E+000  0.526315789473684E+000  0.135051142947023E+000 0.894736842105263E+000  0.578947368421053E+000  0.148556257241728E+000 0.894736842105263E+000  0.631578947368421E+000  0.162061371536433E+000 0.894736842105263E+000  0.684210526315789E+000  0.175566485831136E+000 0.894736842105263E+000  0.736842105263158E+000  0.189071600125840E+000 0.842105263157895E+000  0.736842105263158E+000  0.156413778285925E+000 0.789473684210526E+000  0.684210526315789E+000  0.702265943324545E-001 0.736842105263158E+000  0.631578947368421E+000 -0.220992779367857E-001 0.684210526315789E+000  0.578947368421053E+000 -0.945358000629207E-001 0.6
[...]
        <PointData>

          <DataArray type="Float64" NumberOfComponents="3" Name="N11" format="ascii">
             0.000000000000000E+000  0.000000000000000E+000  0.000000000000000E+000 0.000000000000000E+000  0.000000000000000E+000  0.000000000000000E+000 0.000000000000000E+000  0.000000000000000E+000  0.710542735760100E-014 0.000000000000000E+000  0.000000000000000E+000  0.000000000000000E+000 0.000000000000000E+000  0.000000000000000E+000  0.000000000000000E+000 0.000000000000000E+000  0.000000000000000E+000  0.000000000000000E+000 0.000000000000000E+000  0.000000000000000E+000  0.000000000000000E+000 0.000000000000000E+000  0.000000000000000E+000  0.000000000000000E+000 0.000000000000000E+000  0.000000000000000E+000  0.000000000000000E+000 0.000000000000000E+000  0.000000000000000E+000  0.000000000000000E+000 0.000000000000000E+000  0.000000000000000E+000  0.000000000000000E+000 0.000000000000000E+000  0.000000000000000E+000  0.000000000000000E+000 0.000000000000000E+000  0.000000000000000E+000  0.000000000000000E+000 0.000000000000000E+000  0.000000000000000E+000  0.000000000000000E+000 0.000000000000000E+000  0.000000000000000E+000  0.000000000000000E+000 0.000000000000000E+000  0.000000000000000E+000  0.000000000000000E+000 0.000000000000000E+000  0.000000000000000E+000  0.000000000000000E+000 0.000000000000000E+000  0.000000000000000E+000  0.000000000000000E+000 0.000000000000000E+000  0.000000000000000E+000  0.000000000000000E+000 0.000000000000000E+000  0.000000000000000E+000  0.000000000000000E+000 0.000000000000000E+000  0.000000000000000E+000  0.000000000000000E+000 0.000000000000000E+000  0.000000000000000E+000 -0.335632842115888E-014 0.000000000000000E+000  0.000000000000000E+000 -0.669458534826050E-014 0.000000000000000E+000  0.000000000000000E+000 -0.838302469292299E-014 0.000000000000000E+000  0.000000000000000E+000 -0.108292737615513E-013 0.000000000000000E+000  0.000000000000000E+000 -0.133483248744741E-013 0.000000000000000E+000  0.000000000000000E+000 -0.120038623780006E-013 0.000000000000000E+000  0.000000000000000E+000 -0.125388914343515E-013 0.000000000000000E+000  0.000000000000000E+000 -0.149505768732734E-013 0.000000000000000E+000  0.000000000000000E+000 -0.154238816265942E-013 0.000000000000000E+000  0.000000000000000E+000 -0.141771427689075E-013 0.000000000000000E+000  0.000000000000000E+000 -0.154250640834186E-013 0.000000000000000E+000  0.000000000000000E+000 -0.909704358978335E-014 0.000000000000000E+000  0.000000000000000E+000 -0.777059282997183E-014 0.000000000000000E+000  0.000000000000000E+000 -0.158811516519974E-013 0.000000000000000E+000  0.000000000000000E+000 -0.500112219492957E-014 0.000000000000000E+000  0.000000000000000E+000  0.592801386486082E-014 0.000000000000000E+000  0.000000000000000E+000 -0.440326475482490E-014 0.000000000000000E+000  0.000000000000000E+000  0.190785149052857E-014 0.000000000000000E+000  0.000000000000000E+000  0.187843862462701E+000 0.000000000000000E+000  0.000000000000000E+000  0.229586943009962E+000 0.000000000000000E+000  0.000000000000000E+000  0.178758603755347E+000 0.000000000000000E+000  0.000000000000000E+000  0.810306857682214E-001 0.000000000000000E+000  0.000000000000000E+000 -0.257824909262472E-001 0.000000000000000E+000  0.000000000000000E+000 -0.111724127347089E+000 0.000000000000000E+000  0.000000000000000E+000 -0.154694945557504E+000 0.000000000000000E+000  0.000000000000000E+000 -0.140453188664909E+000 0.000000000000000E+000  0.000000000000000E+000 -0.626146208208925E-001 0.000000000000000E+000  0.000000000000000E+000  0.773474727787554E-001 0.000000000000000E+000  0.000000000000000E+000  0.270102285894063E+000 0.000000000000000E+000  0.000000000000000E+000  0.498461491240859E+000 0.000000000000000E+000  0.000000000000000E+000  0.737379240490788E+000 0.000000000000000E+000  0.000000000000000E+000  0.953952164271300E+000 0.000000000000000E+000  0.000000000000000E+000  0.110741937216565E+001 0.000000000000000E+000  0.000000000000000E+000  0.114916245271292E+001 0.000000000000000E+000  0.000000000000000E+000  0.102270547340797E+001 0.000000000000000E+000  0.000000000000000E+000  0.663714980701499E+000 0.000000000000000E+000  0.000000000000000E+000  0.511352736703985E+000 0.000000000000000E+000  0.000000000000000E+000  0.104357701368132E-001 0.000000000000000E+000  0.000000000000000E+000  0.177408092325879E+000 0.000000000000000E+000  0.000000000000000E+000  0.383054150904306E+000 0.000000000000000E+000  0.000000000000000E+000  0.276854843041413E+000 0.000000000000000E+000  0.000000000000000E+000  0.190790432854260E+000 0.000000000000000E+000  0.000000000000000E+000  0.122896540081798E+000 0.000000000000000E+000  0.000000000000000E+000  0.712087844629801E-001 0.000000000000000E+000  0.000000000000000E+000  0.337627857367576E-001 0.000000000000000E+000  0.000000000000000E+000  0.859416364208372E-002 0.000000000000000E+000  0.000000000000000E+000 -0.626146208208991E-002 0.000000000000000E+000  0.000000000000000E+000 -0.127684716968105E-001 0.000000000000000E+000  0.000000000000000E+000 -0.128912454631264E-001 0.000000000000000E+000  0.000000000000000E+000 -0.859416364208470E-002 0.000000000000000E+000  0.000000000000000E+000 -0.184160649473312E-002 0.000000000000000E+000  0.000000000000000E+000  0.540204571787942E-002 0.000000000000000E+000  0.000000000000000E+000  0.111724127347071E-001 0.000000000000000E+000  0.000000000000000E+000  0.135051142947010E-001 0.000000000000000E+000  0.000000000000000E+000  0.208715402736269E-001 0.000000000000000E+000  0.000000000000000E+000  0.313073104104403E-001 0.000000000000000E+000  0.000000000000000E+000  0.417430805472531E-001 0.000000000000000E+000  0.000000000000000E+000  0.521788506840694E-001 0.000000000000000E+000  0.000000000000000E+000  0.626146208208879E-001 0.000000000000000E+000  0.000000000000000E+000  0.730503909576996E-001 0.000000000000000E+000  0.000000000000000E+000  0.834861610945178E-001 0.000000000000000E+000  0.000000000000000E+000  0.939219312313312E-001 0.000000000000000E+000  0.000000000000000E+000  0.104357701368148E+000 0.000000000000000E+000  0.000000000000000E+000  0.114793471504968E+000 0.000000000000000E+000  0.000000000000000E+000  0.125229241641782E+000 0.000000000000000E+000  0.000000000000000E+000  0.135665011778602E+000 0.000000000000000E+000  0.000000000000000E+000  0.146100781915420E+000 0.000000000000000E+000  0.000000000000000E+000  0.156536552052233E+000 0.000000000000000E+000  0.000000000000000E+000  0.166972322189056E+000 0.000000000000000E+000  0.000000000000000E+000  0.216081828715253E+000 0.000000000000000E+000  0.000000000000000E+000  0.167586191020631E+000 0.000000000000000E+000  0.000000000000000E+000  0.756286400503412E-001 0.000000000000000E+000  0.000000000000000E+000 -0.239408844315203E-001 0.000000000000000E+000  0.000000000000000E+000 -0.103129963705002E+000 0.000000000000000E+000  0.000000000000000E+000 -0.141803700094380E+000 0.000000000000000E+000  0.000000000000000E+000 -0.127684716968100E+000 0.000000000000000E+000  0.000000000000000E+000 -0.563531587388052E-001 0.000000000000000E+000  0.000000000000000E+000  0.687533091366714E-001 0.000000000000000E+000  0.000000000000000E+000  0.236339500157304E+000 0.000000000000000E+000  0.000000000000000E+000  0.427252706777880E+000 0.000000000000000E+000  0.000000000000000E+000  0.614482700408991E+000 0.000000000000000E+000  0.000000000000000E+000  0.763161731417040E+000 0.000000000000000E+000  0.000000000000000E+000  0.830564529124239E+000 0.000000000000000E+000  0.000000000000000E+000  0.766108301808611E+000 0.000000000000000E+000  0.000000000000000E+000  0.553709686082827E+000 0.000000000000000E+000  0.000000000000000E+000  0.270102285894018E-001 0.000000000000000E+000  0.000000000000000E+000  0.202576714420540E+000 0.000000000000000E+000  0.000000000000000E+000  0.381580865708520E+000 0.000000000000000E+000  0.000000000000000E+000  0.245793080163596E+000 0.000000000000000E+000  0.000000000000000E+000  0.142417568925960E+000 0.000000000000000E+000  0.000000000000000E+000  0.675255714735156E-001 0.000000000000000E+000  0.000000000000000E+000  0.171883272841672E-001 0.000000000000000E+000  0.000000000000000E+000 -0.125229241641794E-001 0.000000000000000E+000  0.000000000000000E+000 -0.255369433936213E-001 0.000000000000000E+000  0.000000000000000E+000 -0.257824909262529E-001 0.000000000000000E+000  0.000000000000000E+000 -0.171883272841695E-001 0.000000000000000E+000  0.000000000000000E+000 -0.368321298946699E-002 0.000000000000000E+000  0.000000000000000E+000  0.108040914357601E-001 0.000000000000000E+000  0.000000000000000E+000  0.223448254694135E-001 0.000000000000000E+000  0.000000000000000E+000  0.405153428841041E-001 0.000000000000000E+000  0.000000000000000E+000  0.540204571788058E-001 0.000000000000000E+000  0.000000000000000E+000  0.675255714735061E-001 0.000000000000000E+000  0.000000000000000E+000  0.810306857682093E-001 0.000000000000000E+000  0.000000000000000E+000  0.945358000629109E-001 0.000000000000000E+000  0.000000000000000E+000  0.108040914357616E+000 0.000000000000000E+000  0.000000000000000E+000  0.121546028652317E+000 0.000000000000000E+000  0.000000000000000E+000  0.135051142947023E+000 0.000000000000000E+000  0.000000000000000E+000  0.148556257241728E+000 0.000000000000000E+000  0.000000000000000E+000  0.162061371536433E+000 0.000000000000000E+000  0.000000000000000E+000  0.175566485831136E+000 0.000000000000000E+000  0.000000000000000E+000  0.189071600125840E+000 0.000000000000000E+000  0.000000000000000E+000  0.156413778285925E+000 0.000000000000000E+000  0.000000000000000E+000  0.702265943324545E-001 0.000000000000000E+000  0.000000000000000E+000 -0.220992779367857E-001 0.000000000000000E+000  0.000000000000000E+000 -0.945358000629207E-001 0.000000000000000E+000  0.000000000000000E+000 -0.128912454631259E+000 0.000000000000000E+000  0.000000000000000E+000 -0.114916245271293E+000 0.000000000000000E+000  0.000000000000000E+000 -0.500916966567176E-001 0.000000000000000E+000  0.000000000000000E+000  0.601591454945870E-001 0.000000000000000E+000  0.000000000000000E+000  0.202576714420547E+000 0.000000000000000E+000  0.000000000000000E+000  0.356043922314900E+000 0.000000000000000E+000  0.000000000000000E+000  0.491586160327192E+000 0.000000000000000E+000  0.000000000000000E+000  0.572371298562780E+000 0.000000000000000E+000  0.000000000000000E+000  0.368689620245395E+000 0.000000000000000E+000  0.000000000000000E+000  0.335172382041227E-001 0.000000000000000E+000  0.000000000000000E+000  0.145241365551214E+000 0.000000000000000E+000  0.000000000000000E+000  0.213626353388940E+000 0.000000000000000E+000  0.000000000000000E+000  0.101288357210273E+000 0.000000000000000E+000  0.000000000000000E+000  0.257824909262509E-001 0.000000000000000E+000  0.000000000000000E+000 -0.187843862462690E-001 0.000000000000000E+000  0.000000000000000E+000 -0.383054150904315E-001 0.000000000000000E+000  0.000000000000000E+000 -0.386737363893783E-001 0.000000000000000E+000  0.000000000000000E+000 -0.257824909262542E-001 0.000000000000000E+000  0.000000000000000E+000 -0.552481948419964E-002 0.000000000000000E+000  0.000000000000000E+000  0.162061371536397E-001 0.000000000000000E+000  0.000000000000000E+000  0.446896509388300E-001 0.000000000000000E+000  0.000000000000000E+000  0.558620636735385E-001 0.000000000000000E+000  0.000000000000000E+000  0.670344764082476E-001 0.000000000000000E+000  0.000000000000000E+000  0.782068891429539E-001 0.000000000000000E+000  0.000000000000000E+000  0.893793018776623E-001 0.000000000000000E+000  0.000000000000000E+000  0.100551714612371E+000 0.000000000000000E+000  0.000000000000000E+000  0.111724127347085E+000 0.000000000000000E+000  0.000000000000000E+000  0.122896540081794E+000 0.000000000000000E+000  0.000000000000000E+000  0.134068952816502E+000 0.000000000000000E+000  0.000000000000000E+000  0.648245486145755E-001 0.000000000000000E+000  0.000000000000000E+000 -0.202576714420575E-001 0.000000000000000E+000  0.000000000000000E+000 -0.859416364208423E-001 0.000000000000000E+000  0.000000000000000E+000 -0.116021209168132E+000 0.000000000000000E+000  0.000000000000000E+000 -0.102147773574481E+000 0.000000000000000E+000  0.000000000000000E+000 -0.438302345746273E-001 0.000000000000000E+000  0.000000000000000E+000  0.515649818525027E-001 0.000000000000000E+000  0.000000000000000E+000  0.168813928683788E+000 0.000000000000000E+000  0.000000000000000E+000  0.284835137851919E+000 0.000000000000000E+000  0.000000000000000E+000  0.135051142947031E+000 0.000000000000000E+000  0.000000000000000E+000  0.216081828715207E-001 0.000000000000000E+000  0.000000000000000E+000  0.594225028966872E-001 0.000000000000000E+000  0.000000000000000E+000  0.343766545683350E-001 0.000000000000000E+000  0.000000000000000E+000 -0.250458483283590E-001 0.000000000000000E+000  0.000000000000000E+000 -0.510738867872418E-001 0.000000000000000E+000  0.000000000000000E+000 -0.515649818525047E-001 0.000000000000000E+000  0.000000000000000E+000 -0.343766545683386E-001 0.000000000000000E+000  0.000000000000000E+000 -0.736642597893264E-002 0.000000000000000E+000  0.000000000000000E+000  0.270102285894003E-001 0.000000000000000E+000  0.000000000000000E+000  0.324122743072828E-001 0.000000000000000E+000  0.000000000000000E+000  0.378143200251616E-001 0.000000000000000E+000  0.000000000000000E+000  0.432163657430450E-001 0.000000000000000E+000  0.000000000000000E+000  0.486184114609262E-001 0.000000000000000E+000  0.000000000000000E+000  0.540204571788093E-001 0.000000000000000E+000  0.000000000000000E+000 -0.184160649473268E-001 0.000000000000000E+000  0.000000000000000E+000 -0.773474727787561E-001 0.000000000000000E+000  0.000000000000000E+000 -0.103129963705007E+000 0.000000000000000E+000  0.000000000000000E+000 -0.893793018776738E-001 0.000000000000000E+000  0.000000000000000E+000 -0.375687724925383E-001 0.000000000000000E+000  0.000000000000000E+000  0.429708182104187E-001 0.000000000000000E+000  0.000000000000000E+000 -0.313073104104493E-001 0.000000000000000E+000  0.000000000000000E+000 -0.920803247366572E-002 0.000000000000000E+000  0.000000000000000E+000 -0.165744584525939E-001 0.000000000000000E+000  0.000000000000000E+000 -0.638423584840526E-001 0.000000000000000E+000  0.000000000000000E+000 -0.644562273156310E-001 0.000000000000000E+000  0.000000000000000E+000 -0.429708182104221E-001 0.000000000000000E+000  0.000000000000000E+000 -0.110496389683974E-001 0.000000000000000E+000  0.000000000000000E+000 -0.128912454631291E-001 0.000000000000000E+000  0.000000000000000E+000 -0.147328519578616E-001 0.000000000000000E+000  0.000000000000000E+000 -0.687533091366731E-001 0.000000000000000E+000  0.000000000000000E+000 -0.902387182418813E-001 0.000000000000000E+000  0.000000000000000E+000 -0.766108301808625E-001 0.000000000000000E+000  0.000000000000000E+000 -0.773474727787555E-001 0.000000000000000E+000  0.000000000000000E+000 -0.515649818525051E-001 0.000000000000000E+000  0.000000000000000E+000 -0.601591454945890E-001 0.000000000000000E+000  0.000000000000000E+000  0.000000000000000E+000 0.000000000000000E+000  0.000000000000000E+000 -0.710542735760100E-014 0.000000000000000E+000  0.000000000000000E+000  0.000000000000000E+000 0.000000000000000E+000  0.000000000000000E+000  0.663714980701499E+000 0.000000000000000E+000  0.000000000000000E+000  0.102270547340797E+001 0.000000000000000E+000  0.000000000000000E+000  0.114916245271292E+001 0.000000000000000E+000  0.000000000000000E+000  0.110741937216565E+001 0.000000000000000E+000  0.000000000000000E+000  0.953952164271299E+000 0.000000000000000E+000  0.000000000000000E+000  0.737379240490788E+000 0.000000000000000E+000  0.000000000000000E+000  0.498461491240859E+000 0.000000000000000E+000  0.000000000000000E+000  0.270102285894062E+000 0.000000000000000E+000  0.000000000000000E+000  0.773474727787545E-001 0.000000000000000E+000  0.000000000000000E+000 -0.626146208208977E-001 0.000000000000000E+000  0.000000000000000E+000 -0.140453188664912E+000 0.000000000000000E+000  0.000000000000000E+000 -0.154694945557507E+000 0.000000000000000E+000  0.000000000000000E+000 -0.111724127347092E+000 0.000000000000000E+000  0.000000000000000E+000 -0.257824909262502E-001 0.000000000000000E+000  0.000000000000000E+000  0.810306857682143E-001 0.000000000000000E+000  0.000000000000000E+000  0.178758603755340E+000 0.000000000000000E+000  0.000000000000000E+000  0.229586943009948E+000 0.000000000000000E+000  0.000000000000000E+000  0.187843862462687E+000 0.000000000000000E+000  0.000000000000000E+000 -0.275066320170065E-014 0.000000000000000E+000  0.000000000000000E+000 -0.625171681600774E-014 0.000000000000000E+000  0.000000000000000E+000 -0.696130378929570E-014 0.000000000000000E+000  0.000000000000000E+000 -0.801051002558290E-014 0.000000000000000E+000  0.000000000000000E+000 -0.837290748484990E-014 0.000000000000000E+000  0.000000000000000E+000 -0.910146332033464E-014 0.000000000000000E+000  0.000000000000000E+000 -0.383613301798740E-014 0.000000000000000E+000  0.000000000000000E+000 -0.635589512425176E-014 0.000000000000000E+000  0.000000000000000E+000 -0.439347342165806E-014 0.000000000000000E+000  0.000000000000000E+000 -0.152775239134603E-014 0.000000000000000E+000  0.000000000000000E+000 -0.460124960064628E-014 0.000000000000000E+000  0.000000000000000E+000 -0.181171468381062E-014 0.000000000000000E+000  0.000000000000000E+000 -0.156229694172545E-016 0.000000000000000E+000  0.000000000000000E+000 -0.193159604140092E-014 0.000000000000000E+000  0.000000000000000E+000 -0.140345016731891E-014 0.000000000000000E+000  0.000000000000000E+000 -0.175588363882030E-014 0.000000000000000E+000  0.000000000000000E+000 -0.547413900127149E-015 0.000000000000000E+000  0.000000000000000E+000 -0.154503716127639E-015 0.000000000000000E+000  0.000000000000000E+000  0.000000000000000E+000 0.000000000000000E+000  0.000000000000000E+000  0.000000000000000E+000 0.000000000000000E+000  0.000000000000000E+000  0.000000000000000E+000 0.000000000000000E+000  0.000000000000000E+000  0.000000000000000E+000 0.000000000000000E+000  0.000000000000000E+000  0.000000000000000E+000 0.000000000000000E+000  0.000000000000000E+000  0.000000000000000E+000 0.000000000000000E+000  0.000000000000000E+000  0.000000000000000E+000 0.000000000000000E+000  0.000000000000000E+000  0.000000000000000E+000 0.000000000000000E+000  0.000000000000000E+000  0.000000000000000E+000 0.000000000000000E+000  0.000000000000000E+000  0.000000000000000E+000 0.000000000000000E+000  0.000000000000000E+000  0.000000000000000E+000 0.000000000000000E+000  0.000000000000000E+000  0.000000000000000E+000 0.000000000000000E+000  0.000000000000000E+000  0.000000000000000E+000 0.000000000000000E+000  0.000000000000000E+000  0.000000000000000E+000 0.000000000000000E+000  0.000000000000000E+000  0.000000000000000E+000 0.000000000000000E+000  0.000000000000000E+000  0.000000000000000E+000 0.000000000000000E+000  0.000000000000000E+000  0.000000000000000E+000 0.000000000000000E+000  0.000000000000000E+000  0.000000000000000E+000 0.000000000000000E+000  0.000000000000000E+000  0.511352736703985E+000 0.000000000000000E+000  0.000000000000000E+000  0.177408092325867E+000 0.000000000000000E+000  0.000000000000000E+000  0.104357701368158E-001 0.000000000000000E+000  0.000000000000000E+000  0.766108301808611E+000 0.000000000000000E+000  0.000000000000000E+000  0.830564529124240E+000 0.000000000000000E+000  0.000000000000000E+000  0.763161731417040E+000 0.000000000000000E+000  0.000000000000000E+000  0.614482700408990E+000 0.000000000000000E+000  0.000000000000000E+000  0.427252706777879E+000 0.000000000000000E+000  0.000000000000000E+000  0.236339500157304E+000 0.000000000000000E+000  0.000000000000000E+000  0.687533091366704E-001 0.000000000000000E+000  0.000000000000000E+000 -0.563531587388063E-001 0.000000000000000E+000  0.000000000000000E+000 -0.127684716968104E+000 0.000000000000000E+000  0.000000000000000E+000 -0.141803700094382E+000 